% Model:              MODEL_SC_3_0.15_II.mph
% Version:            COMSOL 5.6.0.401
% Date:               May 21 2022, 13:16
% Dimension:          0
% Nodes:              12462
% Expressions:        12462
% Description:        , 
% TCTL (m^2) @ t=0, gamma=0.155, alpha=0.015
0.8999927773649765
% TCN (m^2) @ t=0, gamma=0.155, alpha=0.015
4.6384110326431983E-4
% TCTL (m^2) @ t=1, gamma=0.155, alpha=0.015
0.8855677377258575
% TCN (m^2) @ t=1, gamma=0.155, alpha=0.015
5.046793009861893E-4
% TCTL (m^2) @ t=2, gamma=0.155, alpha=0.015
0.8772797819625393
% TCN (m^2) @ t=2, gamma=0.155, alpha=0.015
5.49148352093236E-4
% TCTL (m^2) @ t=3, gamma=0.155, alpha=0.015
0.8737253113084161
% TCN (m^2) @ t=3, gamma=0.155, alpha=0.015
5.96941798664125E-4
% TCTL (m^2) @ t=4, gamma=0.155, alpha=0.015
0.8752877705471673
% TCN (m^2) @ t=4, gamma=0.155, alpha=0.015
6.490735894026315E-4
% TCTL (m^2) @ t=5, gamma=0.155, alpha=0.015
0.8818452079379158
% TCN (m^2) @ t=5, gamma=0.155, alpha=0.015
7.059306064611734E-4
% TCTL (m^2) @ t=6, gamma=0.155, alpha=0.015
0.8932168839975101
% TCN (m^2) @ t=6, gamma=0.155, alpha=0.015
7.678401562424323E-4
% TCTL (m^2) @ t=7, gamma=0.155, alpha=0.015
0.9092424624043698
% TCN (m^2) @ t=7, gamma=0.155, alpha=0.015
8.354288791183114E-4
% TCTL (m^2) @ t=8, gamma=0.155, alpha=0.015
0.9298097651891969
% TCN (m^2) @ t=8, gamma=0.155, alpha=0.015
9.092300911292723E-4
% TCTL (m^2) @ t=9, gamma=0.155, alpha=0.015
0.9548431185706232
% TCN (m^2) @ t=9, gamma=0.155, alpha=0.015
9.895928613394794E-4
% TCTL (m^2) @ t=10, gamma=0.155, alpha=0.015
0.9842061902963415
% TCN (m^2) @ t=10, gamma=0.155, alpha=0.015
0.001077202684703503
% TCTL (m^2) @ t=11, gamma=0.155, alpha=0.015
1.0179001573247153
% TCN (m^2) @ t=11, gamma=0.155, alpha=0.015
0.0011726951250502628
% TCTL (m^2) @ t=12, gamma=0.155, alpha=0.015
1.055872329752575
% TCN (m^2) @ t=12, gamma=0.155, alpha=0.015
0.0012766855745865936
% TCTL (m^2) @ t=13, gamma=0.155, alpha=0.015
1.0980991468626393
% TCN (m^2) @ t=13, gamma=0.155, alpha=0.015
0.0013898207351348822
% TCTL (m^2) @ t=14, gamma=0.155, alpha=0.015
1.1446004248667656
% TCN (m^2) @ t=14, gamma=0.155, alpha=0.015
0.0015127707484739001
% TCTL (m^2) @ t=15, gamma=0.155, alpha=0.015
1.1953367180354595
% TCN (m^2) @ t=15, gamma=0.155, alpha=0.015
0.0016461737325082454
% TCTL (m^2) @ t=16, gamma=0.155, alpha=0.015
1.2503993707803924
% TCN (m^2) @ t=16, gamma=0.155, alpha=0.015
0.0017906474414381536
% TCTL (m^2) @ t=17, gamma=0.155, alpha=0.015
1.3098672440814791
% TCN (m^2) @ t=17, gamma=0.155, alpha=0.015
0.0019468130993331575
% TCTL (m^2) @ t=18, gamma=0.155, alpha=0.015
1.3737338739050022
% TCN (m^2) @ t=18, gamma=0.155, alpha=0.015
0.002115315647030193
% TCTL (m^2) @ t=19, gamma=0.155, alpha=0.015
1.4422367976939952
% TCN (m^2) @ t=19, gamma=0.155, alpha=0.015
0.0022962363583493863
% TCTL (m^2) @ t=20, gamma=0.155, alpha=0.015
1.515431260658809
% TCN (m^2) @ t=20, gamma=0.155, alpha=0.015
0.002490145303036521
% TCTL (m^2) @ t=21, gamma=0.155, alpha=0.015
1.5934201907264183
% TCN (m^2) @ t=21, gamma=0.155, alpha=0.015
0.002697399446136392
% TCTL (m^2) @ t=22, gamma=0.155, alpha=0.015
1.6765124203085127
% TCN (m^2) @ t=22, gamma=0.155, alpha=0.015
0.0029171841593269637
% TCTL (m^2) @ t=23, gamma=0.155, alpha=0.015
1.7647852071154686
% TCN (m^2) @ t=23, gamma=0.155, alpha=0.015
0.0031500539348006847
% TCTL (m^2) @ t=24, gamma=0.155, alpha=0.015
1.8585098715472177
% TCN (m^2) @ t=24, gamma=0.155, alpha=0.015
0.0033955207038789195
% TCTL (m^2) @ t=25, gamma=0.155, alpha=0.015
1.9581675960110827
% TCN (m^2) @ t=25, gamma=0.155, alpha=0.015
0.0036520368506398697
% TCTL (m^2) @ t=26, gamma=0.155, alpha=0.015
2.0640393621407935
% TCN (m^2) @ t=26, gamma=0.155, alpha=0.015
0.003919065528954546
% TCTL (m^2) @ t=27, gamma=0.155, alpha=0.015
2.176410275692232
% TCN (m^2) @ t=27, gamma=0.155, alpha=0.015
0.004195474372006284
% TCTL (m^2) @ t=28, gamma=0.155, alpha=0.015
2.2955979822230983
% TCN (m^2) @ t=28, gamma=0.155, alpha=0.015
0.004479920170416801
% TCTL (m^2) @ t=29, gamma=0.155, alpha=0.015
2.422002840983814
% TCN (m^2) @ t=29, gamma=0.155, alpha=0.015
0.004770836829749218
% TCTL (m^2) @ t=30, gamma=0.155, alpha=0.015
2.555806565438827
% TCN (m^2) @ t=30, gamma=0.155, alpha=0.015
0.005065820834015995
% TCTL (m^2) @ t=31, gamma=0.155, alpha=0.015
2.697352300961839
% TCN (m^2) @ t=31, gamma=0.155, alpha=0.015
0.0053626868392645695
% TCTL (m^2) @ t=32, gamma=0.155, alpha=0.015
2.846982181233134
% TCN (m^2) @ t=32, gamma=0.155, alpha=0.015
0.005658864515650551
% TCTL (m^2) @ t=33, gamma=0.155, alpha=0.015
3.0052519329885534
% TCN (m^2) @ t=33, gamma=0.155, alpha=0.015
0.005951514626485282
% TCTL (m^2) @ t=34, gamma=0.155, alpha=0.015
3.1725291404245044
% TCN (m^2) @ t=34, gamma=0.155, alpha=0.015
0.006237493655333012
% TCTL (m^2) @ t=35, gamma=0.155, alpha=0.015
3.349355482842521
% TCN (m^2) @ t=35, gamma=0.155, alpha=0.015
0.006512960828410946
% TCTL (m^2) @ t=36, gamma=0.155, alpha=0.015
3.536307338118532
% TCN (m^2) @ t=36, gamma=0.155, alpha=0.015
0.0067740126539001366
% TCTL (m^2) @ t=37, gamma=0.155, alpha=0.015
3.7338174266851007
% TCN (m^2) @ t=37, gamma=0.155, alpha=0.015
0.007017540385628049
% TCTL (m^2) @ t=38, gamma=0.155, alpha=0.015
3.9425625285452224
% TCN (m^2) @ t=38, gamma=0.155, alpha=0.015
0.007239698893239614
% TCTL (m^2) @ t=39, gamma=0.155, alpha=0.015
4.163122187676886
% TCN (m^2) @ t=39, gamma=0.155, alpha=0.015
0.007436855776567052
% TCTL (m^2) @ t=40, gamma=0.155, alpha=0.015
4.396020627114902
% TCN (m^2) @ t=40, gamma=0.155, alpha=0.015
0.007605506427472961
% TCTL (m^2) @ t=41, gamma=0.155, alpha=0.015
4.642187288206916
% TCN (m^2) @ t=41, gamma=0.155, alpha=0.015
0.007741952310158636
% TCTL (m^2) @ t=42, gamma=0.155, alpha=0.015
4.902153331708797
% TCN (m^2) @ t=42, gamma=0.155, alpha=0.015
0.007842616363658808
% TCTL (m^2) @ t=43, gamma=0.155, alpha=0.015
5.176658839336157
% TCN (m^2) @ t=43, gamma=0.155, alpha=0.015
0.007904653399800716
% TCTL (m^2) @ t=44, gamma=0.155, alpha=0.015
5.466724817259601
% TCN (m^2) @ t=44, gamma=0.155, alpha=0.015
0.007927636611265745
% TCTL (m^2) @ t=45, gamma=0.155, alpha=0.015
5.772985644411605
% TCN (m^2) @ t=45, gamma=0.155, alpha=0.015
0.007907810851411831
% TCTL (m^2) @ t=46, gamma=0.155, alpha=0.015
6.096377844681432
% TCN (m^2) @ t=46, gamma=0.155, alpha=0.015
0.007844637901559676
% TCTL (m^2) @ t=47, gamma=0.155, alpha=0.015
6.437893501231473
% TCN (m^2) @ t=47, gamma=0.155, alpha=0.015
0.0077382529419871195
% TCTL (m^2) @ t=48, gamma=0.155, alpha=0.015
6.798306679992637
% TCN (m^2) @ t=48, gamma=0.155, alpha=0.015
0.0075861487034208815
% TCTL (m^2) @ t=49, gamma=0.155, alpha=0.015
7.180561616300041
% TCN (m^2) @ t=49, gamma=0.155, alpha=0.015
0.007392808928291351
% TCTL (m^2) @ t=50, gamma=0.155, alpha=0.015
7.584062785144422
% TCN (m^2) @ t=50, gamma=0.155, alpha=0.015
0.007157986981481307
% TCTL (m^2) @ t=51, gamma=0.155, alpha=0.015
8.00862830285718
% TCN (m^2) @ t=51, gamma=0.155, alpha=0.015
0.006881643066112225
% TCTL (m^2) @ t=52, gamma=0.155, alpha=0.015
8.458304396855794
% TCN (m^2) @ t=52, gamma=0.155, alpha=0.015
0.006578056760011396
% TCTL (m^2) @ t=53, gamma=0.155, alpha=0.015
8.931136417460637
% TCN (m^2) @ t=53, gamma=0.155, alpha=0.015
0.006240329891290544
% TCTL (m^2) @ t=54, gamma=0.155, alpha=0.015
9.428582954989814
% TCN (m^2) @ t=54, gamma=0.155, alpha=0.015
0.005875089658570271
% TCTL (m^2) @ t=55, gamma=0.155, alpha=0.015
9.953918732178927
% TCN (m^2) @ t=55, gamma=0.155, alpha=0.015
0.005497214974542727
% TCTL (m^2) @ t=56, gamma=0.155, alpha=0.015
10.50521747818135
% TCN (m^2) @ t=56, gamma=0.155, alpha=0.015
0.0050979537041228075
% TCTL (m^2) @ t=57, gamma=0.155, alpha=0.015
11.084537861399902
% TCN (m^2) @ t=57, gamma=0.155, alpha=0.015
0.004691677229270956
% TCTL (m^2) @ t=58, gamma=0.155, alpha=0.015
11.692818493797589
% TCN (m^2) @ t=58, gamma=0.155, alpha=0.015
0.004284937917049452
% TCTL (m^2) @ t=59, gamma=0.155, alpha=0.015
12.329108711421767
% TCN (m^2) @ t=59, gamma=0.155, alpha=0.015
0.003871099266522803
% TCTL (m^2) @ t=60, gamma=0.155, alpha=0.015
12.992905097097923
% TCN (m^2) @ t=60, gamma=0.155, alpha=0.015
0.003464977965078335
% TCTL (m^2) @ t=61, gamma=0.155, alpha=0.015
13.684114637784646
% TCN (m^2) @ t=61, gamma=0.155, alpha=0.015
0.0030693115934490164
% TCTL (m^2) @ t=62, gamma=0.155, alpha=0.015
14.401218773264699
% TCN (m^2) @ t=62, gamma=0.155, alpha=0.015
0.0026874620390076
% TCTL (m^2) @ t=63, gamma=0.155, alpha=0.015
15.129013261476565
% TCN (m^2) @ t=63, gamma=0.155, alpha=0.015
0.0023266120637960314
% TCTL (m^2) @ t=64, gamma=0.155, alpha=0.015
15.868321345353497
% TCN (m^2) @ t=64, gamma=0.155, alpha=0.015
0.001991076487330384
% TCTL (m^2) @ t=65, gamma=0.155, alpha=0.015
16.602450749918045
% TCN (m^2) @ t=65, gamma=0.155, alpha=0.015
0.0016833811907430293
% TCTL (m^2) @ t=66, gamma=0.155, alpha=0.015
17.296652782632428
% TCN (m^2) @ t=66, gamma=0.155, alpha=0.015
0.0014021911132984402
% TCTL (m^2) @ t=67, gamma=0.155, alpha=0.015
17.947223687613878
% TCN (m^2) @ t=67, gamma=0.155, alpha=0.015
0.0011528094266411845
% TCTL (m^2) @ t=68, gamma=0.155, alpha=0.015
18.475741229510536
% TCN (m^2) @ t=68, gamma=0.155, alpha=0.015
9.344548096742526E-4
% TCTL (m^2) @ t=69, gamma=0.155, alpha=0.015
18.81761279098999
% TCN (m^2) @ t=69, gamma=0.155, alpha=0.015
7.471633632513087E-4
% TCTL (m^2) @ t=70, gamma=0.155, alpha=0.015
18.949853791912368
% TCN (m^2) @ t=70, gamma=0.155, alpha=0.015
5.934304985901332E-4
% TCTL (m^2) @ t=71, gamma=0.155, alpha=0.015
18.76242576063596
% TCN (m^2) @ t=71, gamma=0.155, alpha=0.015
4.632018835538838E-4
% TCTL (m^2) @ t=72, gamma=0.155, alpha=0.015
18.212414192100237
% TCN (m^2) @ t=72, gamma=0.155, alpha=0.015
3.5707438652657765E-4
% TCTL (m^2) @ t=73, gamma=0.155, alpha=0.015
17.414678017595854
% TCN (m^2) @ t=73, gamma=0.155, alpha=0.015
2.7222646913241757E-4
% TCTL (m^2) @ t=74, gamma=0.155, alpha=0.015
16.35121683548251
% TCN (m^2) @ t=74, gamma=0.155, alpha=0.015
2.0635925307263387E-4
% TCTL (m^2) @ t=75, gamma=0.155, alpha=0.015
15.179047151965875
% TCN (m^2) @ t=75, gamma=0.155, alpha=0.015
1.5458407713785145E-4
% TCTL (m^2) @ t=76, gamma=0.155, alpha=0.015
13.940666160927153
% TCN (m^2) @ t=76, gamma=0.155, alpha=0.015
1.1470446722543906E-4
% TCTL (m^2) @ t=77, gamma=0.155, alpha=0.015
12.70908219223815
% TCN (m^2) @ t=77, gamma=0.155, alpha=0.015
8.557910983577593E-5
% TCTL (m^2) @ t=78, gamma=0.155, alpha=0.015
11.554736050655233
% TCN (m^2) @ t=78, gamma=0.155, alpha=0.015
6.339261236195916E-5
% TCTL (m^2) @ t=79, gamma=0.155, alpha=0.015
10.479969784982577
% TCN (m^2) @ t=79, gamma=0.155, alpha=0.015
4.7263847593617076E-5
% TCTL (m^2) @ t=80, gamma=0.155, alpha=0.015
9.493580160057403
% TCN (m^2) @ t=80, gamma=0.155, alpha=0.015
3.537707655108493E-5
% TCTL (m^2) @ t=81, gamma=0.155, alpha=0.015
8.591589672058241
% TCN (m^2) @ t=81, gamma=0.155, alpha=0.015
2.6680165847053717E-5
% TCTL (m^2) @ t=82, gamma=0.155, alpha=0.015
7.771583706557882
% TCN (m^2) @ t=82, gamma=0.155, alpha=0.015
2.0557211330677743E-5
% TCTL (m^2) @ t=83, gamma=0.155, alpha=0.015
7.028187100479254
% TCN (m^2) @ t=83, gamma=0.155, alpha=0.015
1.6135491036105152E-5
% TCTL (m^2) @ t=84, gamma=0.155, alpha=0.015
6.356490453924039
% TCN (m^2) @ t=84, gamma=0.155, alpha=0.015
1.3022630849890332E-5
% TCTL (m^2) @ t=85, gamma=0.155, alpha=0.015
5.750973723049727
% TCN (m^2) @ t=85, gamma=0.155, alpha=0.015
1.0820052677077022E-5
% TCTL (m^2) @ t=86, gamma=0.155, alpha=0.015
5.2036260918195225
% TCN (m^2) @ t=86, gamma=0.155, alpha=0.015
9.20612175341725E-6
% TCTL (m^2) @ t=87, gamma=0.155, alpha=0.015
4.709406331764272
% TCN (m^2) @ t=87, gamma=0.155, alpha=0.015
8.057818199481716E-6
% TCTL (m^2) @ t=88, gamma=0.155, alpha=0.015
4.262593790823836
% TCN (m^2) @ t=88, gamma=0.155, alpha=0.015
7.2089008911034546E-6
% TCTL (m^2) @ t=89, gamma=0.155, alpha=0.015
3.858125663065719
% TCN (m^2) @ t=89, gamma=0.155, alpha=0.015
6.6045190156813E-6
% TCTL (m^2) @ t=90, gamma=0.155, alpha=0.015
3.4921335062536913
% TCN (m^2) @ t=90, gamma=0.155, alpha=0.015
6.188701785826016E-6
% TCTL (m^2) @ t=91, gamma=0.155, alpha=0.015
3.16049993567045
% TCN (m^2) @ t=91, gamma=0.155, alpha=0.015
5.890699181418848E-6
% TCTL (m^2) @ t=92, gamma=0.155, alpha=0.015
2.8600162230615207
% TCN (m^2) @ t=92, gamma=0.155, alpha=0.015
5.657040225253255E-6
% TCTL (m^2) @ t=93, gamma=0.155, alpha=0.015
2.587954548444124
% TCN (m^2) @ t=93, gamma=0.155, alpha=0.015
5.462634750429767E-6
% TCTL (m^2) @ t=94, gamma=0.155, alpha=0.015
2.3417564831262
% TCN (m^2) @ t=94, gamma=0.155, alpha=0.015
5.373206079401918E-6
% TCTL (m^2) @ t=95, gamma=0.155, alpha=0.015
2.118984948427858
% TCN (m^2) @ t=95, gamma=0.155, alpha=0.015
5.468250474564579E-6
% TCTL (m^2) @ t=96, gamma=0.155, alpha=0.015
1.9173925893718065
% TCN (m^2) @ t=96, gamma=0.155, alpha=0.015
5.700469037002159E-6
% TCTL (m^2) @ t=97, gamma=0.155, alpha=0.015
1.7347052730656527
% TCN (m^2) @ t=97, gamma=0.155, alpha=0.015
6.018851467884085E-6
% TCTL (m^2) @ t=98, gamma=0.155, alpha=0.015
1.5691724844802941
% TCN (m^2) @ t=98, gamma=0.155, alpha=0.015
6.431495780052712E-6
% TCTL (m^2) @ t=99, gamma=0.155, alpha=0.015
1.4192390663470276
% TCN (m^2) @ t=99, gamma=0.155, alpha=0.015
6.954700161320432E-6
% TCTL (m^2) @ t=100, gamma=0.155, alpha=0.015
1.2824007092215906
% TCN (m^2) @ t=100, gamma=0.155, alpha=0.015
7.6234448425491285E-6
% TCTL (m^2) @ t=101, gamma=0.155, alpha=0.015
1.159023960319109
% TCN (m^2) @ t=101, gamma=0.155, alpha=0.015
8.432775913437798E-6
% TCTL (m^2) @ t=102, gamma=0.155, alpha=0.015
1.0463827330578415
% TCN (m^2) @ t=102, gamma=0.155, alpha=0.015
9.446021552792654E-6
% TCTL (m^2) @ t=103, gamma=0.155, alpha=0.015
0.9454483257958207
% TCN (m^2) @ t=103, gamma=0.155, alpha=0.015
1.064061807664868E-5
% TCTL (m^2) @ t=104, gamma=0.155, alpha=0.015
0.8537830648992496
% TCN (m^2) @ t=104, gamma=0.155, alpha=0.015
1.2104017161297563E-5
% TCTL (m^2) @ t=105, gamma=0.155, alpha=0.015
0.771077582326346
% TCN (m^2) @ t=105, gamma=0.155, alpha=0.015
1.3847266044450614E-5
% TCTL (m^2) @ t=106, gamma=0.155, alpha=0.015
0.6965830944297678
% TCN (m^2) @ t=106, gamma=0.155, alpha=0.015
1.5936526672889448E-5
% TCTL (m^2) @ t=107, gamma=0.155, alpha=0.015
0.6289323811324427
% TCN (m^2) @ t=107, gamma=0.155, alpha=0.015
1.8461827227493372E-5
% TCTL (m^2) @ t=108, gamma=0.155, alpha=0.015
0.5686197833178699
% TCN (m^2) @ t=108, gamma=0.155, alpha=0.015
2.140903191088177E-5
% TCTL (m^2) @ t=109, gamma=0.155, alpha=0.015
0.5141257969772521
% TCN (m^2) @ t=109, gamma=0.155, alpha=0.015
2.4968894115354193E-5
% TCTL (m^2) @ t=110, gamma=0.155, alpha=0.015
0.46526751138498085
% TCN (m^2) @ t=110, gamma=0.155, alpha=0.015
2.9166826046999247E-5
% TCTL (m^2) @ t=111, gamma=0.155, alpha=0.015
0.4213106268739647
% TCN (m^2) @ t=111, gamma=0.155, alpha=0.015
3.421654636200951E-5
% TCTL (m^2) @ t=112, gamma=0.155, alpha=0.015
0.3816673640975722
% TCN (m^2) @ t=112, gamma=0.155, alpha=0.015
4.020353933921665E-5
% TCTL (m^2) @ t=113, gamma=0.155, alpha=0.015
0.3460347749731429
% TCN (m^2) @ t=113, gamma=0.155, alpha=0.015
4.736332836710439E-5
% TCTL (m^2) @ t=114, gamma=0.155, alpha=0.015
0.3139687626963234
% TCN (m^2) @ t=114, gamma=0.155, alpha=0.015
5.5881301814475744E-5
% TCTL (m^2) @ t=115, gamma=0.155, alpha=0.015
0.28511202490303444
% TCN (m^2) @ t=115, gamma=0.155, alpha=0.015
6.60165667281022E-5
% TCTL (m^2) @ t=116, gamma=0.155, alpha=0.015
0.25923815883449763
% TCN (m^2) @ t=116, gamma=0.155, alpha=0.015
7.809748044347695E-5
% TCTL (m^2) @ t=117, gamma=0.155, alpha=0.015
0.23600552796262847
% TCN (m^2) @ t=117, gamma=0.155, alpha=0.015
9.240640164078604E-5
% TCTL (m^2) @ t=118, gamma=0.155, alpha=0.015
0.215355081168077
% TCN (m^2) @ t=118, gamma=0.155, alpha=0.015
1.0947376631728812E-4
% TCTL (m^2) @ t=119, gamma=0.155, alpha=0.015
0.1969811282612444
% TCN (m^2) @ t=119, gamma=0.155, alpha=0.015
1.2960558866350892E-4
% TCTL (m^2) @ t=120, gamma=0.155, alpha=0.015
0.1808235552717567
% TCN (m^2) @ t=120, gamma=0.155, alpha=0.015
1.535837016648122E-4
% TCTL (m^2) @ t=121, gamma=0.155, alpha=0.015
0.16673443503849553
% TCN (m^2) @ t=121, gamma=0.155, alpha=0.015
1.8198106628039182E-4
% TCTL (m^2) @ t=122, gamma=0.155, alpha=0.015
0.15462884219794995
% TCN (m^2) @ t=122, gamma=0.155, alpha=0.015
2.1552049923720317E-4
% TCTL (m^2) @ t=123, gamma=0.155, alpha=0.015
0.1444527342831648
% TCN (m^2) @ t=123, gamma=0.155, alpha=0.015
2.549982751689579E-4
% TCTL (m^2) @ t=124, gamma=0.155, alpha=0.015
0.13612086039715748
% TCN (m^2) @ t=124, gamma=0.155, alpha=0.015
3.0159318659290276E-4
% TCTL (m^2) @ t=125, gamma=0.155, alpha=0.015
0.129581517029951
% TCN (m^2) @ t=125, gamma=0.155, alpha=0.015
3.565442214147254E-4
% TCTL (m^2) @ t=126, gamma=0.155, alpha=0.015
0.12485574087650236
% TCN (m^2) @ t=126, gamma=0.155, alpha=0.015
4.209554804256437E-4
% TCTL (m^2) @ t=127, gamma=0.155, alpha=0.015
0.12196415888651817
% TCN (m^2) @ t=127, gamma=0.155, alpha=0.015
4.961602816491715E-4
% TCTL (m^2) @ t=128, gamma=0.155, alpha=0.015
0.12072694492193159
% TCN (m^2) @ t=128, gamma=0.155, alpha=0.015
5.841055600525255E-4
% TCTL (m^2) @ t=129, gamma=0.155, alpha=0.015
0.12099580239408798
% TCN (m^2) @ t=129, gamma=0.155, alpha=0.015
6.868288714182159E-4
% TCTL (m^2) @ t=130, gamma=0.155, alpha=0.015
0.12282999928650029
% TCN (m^2) @ t=130, gamma=0.155, alpha=0.015
8.060615280076002E-4
% TCTL (m^2) @ t=131, gamma=0.155, alpha=0.015
0.12619394449569796
% TCN (m^2) @ t=131, gamma=0.155, alpha=0.015
9.439104013233819E-4
% TCTL (m^2) @ t=132, gamma=0.155, alpha=0.015
0.13067924570993927
% TCN (m^2) @ t=132, gamma=0.155, alpha=0.015
0.0011055231460160061
% TCTL (m^2) @ t=133, gamma=0.155, alpha=0.015
0.13595527261030155
% TCN (m^2) @ t=133, gamma=0.155, alpha=0.015
0.001294982892511896
% TCTL (m^2) @ t=134, gamma=0.155, alpha=0.015
0.14207866453057402
% TCN (m^2) @ t=134, gamma=0.155, alpha=0.015
0.0015134214776217957
% TCTL (m^2) @ t=135, gamma=0.155, alpha=0.015
0.14890800756762776
% TCN (m^2) @ t=135, gamma=0.155, alpha=0.015
0.001763579266116381
% TCTL (m^2) @ t=136, gamma=0.155, alpha=0.015
0.15648785016975242
% TCN (m^2) @ t=136, gamma=0.155, alpha=0.015
0.0020523485288380704
% TCTL (m^2) @ t=137, gamma=0.155, alpha=0.015
0.16483849524729416
% TCN (m^2) @ t=137, gamma=0.155, alpha=0.015
0.0023860802163274087
% TCTL (m^2) @ t=138, gamma=0.155, alpha=0.015
0.17376276299616664
% TCN (m^2) @ t=138, gamma=0.155, alpha=0.015
0.0027662696306796956
% TCTL (m^2) @ t=139, gamma=0.155, alpha=0.015
0.18317168853423452
% TCN (m^2) @ t=139, gamma=0.155, alpha=0.015
0.0031968281447060137
% TCTL (m^2) @ t=140, gamma=0.155, alpha=0.015
0.1934048702062691
% TCN (m^2) @ t=140, gamma=0.155, alpha=0.015
0.0036907246817964624
% TCTL (m^2) @ t=141, gamma=0.155, alpha=0.015
0.2043051962088662
% TCN (m^2) @ t=141, gamma=0.155, alpha=0.015
0.004250430350764987
% TCTL (m^2) @ t=142, gamma=0.155, alpha=0.015
0.21583031484312676
% TCN (m^2) @ t=142, gamma=0.155, alpha=0.015
0.004880841679560353
% TCTL (m^2) @ t=143, gamma=0.155, alpha=0.015
0.2280522674740917
% TCN (m^2) @ t=143, gamma=0.155, alpha=0.015
0.005590671049313183
% TCTL (m^2) @ t=144, gamma=0.155, alpha=0.015
0.24123476706958064
% TCN (m^2) @ t=144, gamma=0.155, alpha=0.015
0.006395682697376106
% TCTL (m^2) @ t=145, gamma=0.155, alpha=0.015
0.25528663899721343
% TCN (m^2) @ t=145, gamma=0.155, alpha=0.015
0.007298584068674991
% TCTL (m^2) @ t=146, gamma=0.155, alpha=0.015
0.2702508378248403
% TCN (m^2) @ t=146, gamma=0.155, alpha=0.015
0.008307017401926046
% TCTL (m^2) @ t=147, gamma=0.155, alpha=0.015
0.2862191077074768
% TCN (m^2) @ t=147, gamma=0.155, alpha=0.015
0.009437176449621153
% TCTL (m^2) @ t=148, gamma=0.155, alpha=0.015
0.30325535634088385
% TCN (m^2) @ t=148, gamma=0.155, alpha=0.015
0.010700375975135748
% TCTL (m^2) @ t=149, gamma=0.155, alpha=0.015
0.3213997765775627
% TCN (m^2) @ t=149, gamma=0.155, alpha=0.015
0.012103774162119687
% TCTL (m^2) @ t=150, gamma=0.155, alpha=0.015
0.3407043614029941
% TCN (m^2) @ t=150, gamma=0.155, alpha=0.015
0.013657715845775641
% TCTL (m^2) @ t=151, gamma=0.155, alpha=0.015
0.3611423511891508
% TCN (m^2) @ t=151, gamma=0.155, alpha=0.015
0.015383225268825573
% TCTL (m^2) @ t=152, gamma=0.155, alpha=0.015
0.3827917186925208
% TCN (m^2) @ t=152, gamma=0.155, alpha=0.015
0.017287124227052135
% TCTL (m^2) @ t=153, gamma=0.155, alpha=0.015
0.4056944720411325
% TCN (m^2) @ t=153, gamma=0.155, alpha=0.015
0.019381111572458695
% TCTL (m^2) @ t=154, gamma=0.155, alpha=0.015
0.4298693423556683
% TCN (m^2) @ t=154, gamma=0.155, alpha=0.015
0.021679414765371843
% TCTL (m^2) @ t=155, gamma=0.155, alpha=0.015
0.45532057247322694
% TCN (m^2) @ t=155, gamma=0.155, alpha=0.015
0.02419783514517894
% TCTL (m^2) @ t=156, gamma=0.155, alpha=0.015
0.482099502630003
% TCN (m^2) @ t=156, gamma=0.155, alpha=0.015
0.02694705780614224
% TCTL (m^2) @ t=157, gamma=0.155, alpha=0.015
0.5102379198336996
% TCN (m^2) @ t=157, gamma=0.155, alpha=0.015
0.029939891932428627
% TCTL (m^2) @ t=158, gamma=0.155, alpha=0.015
0.5397935914881042
% TCN (m^2) @ t=158, gamma=0.155, alpha=0.015
0.03318942703489736
% TCTL (m^2) @ t=159, gamma=0.155, alpha=0.015
0.5708067329878395
% TCN (m^2) @ t=159, gamma=0.155, alpha=0.015
0.03670856323943213
% TCTL (m^2) @ t=160, gamma=0.155, alpha=0.015
0.6033178533400319
% TCN (m^2) @ t=160, gamma=0.155, alpha=0.015
0.0405102038399755
% TCTL (m^2) @ t=161, gamma=0.155, alpha=0.015
0.6373781031211208
% TCN (m^2) @ t=161, gamma=0.155, alpha=0.015
0.04460604244328828
% TCTL (m^2) @ t=162, gamma=0.155, alpha=0.015
0.6730691491802299
% TCN (m^2) @ t=162, gamma=0.155, alpha=0.015
0.04900081729723846
% TCTL (m^2) @ t=163, gamma=0.155, alpha=0.015
0.710440617406266
% TCN (m^2) @ t=163, gamma=0.155, alpha=0.015
0.05370751979099077
% TCTL (m^2) @ t=164, gamma=0.155, alpha=0.015
0.7495583707587155
% TCN (m^2) @ t=164, gamma=0.155, alpha=0.015
0.05873565741987134
% TCTL (m^2) @ t=165, gamma=0.155, alpha=0.015
0.7905837099435826
% TCN (m^2) @ t=165, gamma=0.155, alpha=0.015
0.06408841702891656
% TCTL (m^2) @ t=166, gamma=0.155, alpha=0.015
0.8336961224920452
% TCN (m^2) @ t=166, gamma=0.155, alpha=0.015
0.06976759708552724
% TCTL (m^2) @ t=167, gamma=0.155, alpha=0.015
0.8789983231689009
% TCN (m^2) @ t=167, gamma=0.155, alpha=0.015
0.07577967060516991
% TCTL (m^2) @ t=168, gamma=0.155, alpha=0.015
0.9266479542999244
% TCN (m^2) @ t=168, gamma=0.155, alpha=0.015
0.08212737642418436
% TCTL (m^2) @ t=169, gamma=0.155, alpha=0.015
0.9768140856149492
% TCN (m^2) @ t=169, gamma=0.155, alpha=0.015
0.08879659272214366
% TCTL (m^2) @ t=170, gamma=0.155, alpha=0.015
1.0296823182773596
% TCN (m^2) @ t=170, gamma=0.155, alpha=0.015
0.09578725050547117
% TCTL (m^2) @ t=171, gamma=0.155, alpha=0.015
1.0854514345316963
% TCN (m^2) @ t=171, gamma=0.155, alpha=0.015
0.10309304158838203
% TCTL (m^2) @ t=172, gamma=0.155, alpha=0.015
1.1442969928322757
% TCN (m^2) @ t=172, gamma=0.155, alpha=0.015
0.1106999805418754
% TCTL (m^2) @ t=173, gamma=0.155, alpha=0.015
1.206328136677272
% TCN (m^2) @ t=173, gamma=0.155, alpha=0.015
0.11858079882345646
% TCTL (m^2) @ t=174, gamma=0.155, alpha=0.015
1.271779116875535
% TCN (m^2) @ t=174, gamma=0.155, alpha=0.015
0.12672182216412786
% TCTL (m^2) @ t=175, gamma=0.155, alpha=0.015
1.3408465550097257
% TCN (m^2) @ t=175, gamma=0.155, alpha=0.015
0.1351001328432997
% TCTL (m^2) @ t=176, gamma=0.155, alpha=0.015
1.4140752229312203
% TCN (m^2) @ t=176, gamma=0.155, alpha=0.015
0.14368213171794855
% TCTL (m^2) @ t=177, gamma=0.155, alpha=0.015
1.4918841840517678
% TCN (m^2) @ t=177, gamma=0.155, alpha=0.015
0.15243399830397641
% TCTL (m^2) @ t=178, gamma=0.155, alpha=0.015
1.5745950822649313
% TCN (m^2) @ t=178, gamma=0.155, alpha=0.015
0.16132106631913873
% TCTL (m^2) @ t=179, gamma=0.155, alpha=0.015
1.6625853172573581
% TCN (m^2) @ t=179, gamma=0.155, alpha=0.015
0.17029835605953875
% TCTL (m^2) @ t=180, gamma=0.155, alpha=0.015
1.755375659431505
% TCN (m^2) @ t=180, gamma=0.155, alpha=0.015
0.17926276292108068
% TCTL (m^2) @ t=181, gamma=0.155, alpha=0.015
1.8535820620775025
% TCN (m^2) @ t=181, gamma=0.155, alpha=0.015
0.1881991269775803
% TCTL (m^2) @ t=182, gamma=0.155, alpha=0.015
1.9574492835800004
% TCN (m^2) @ t=182, gamma=0.155, alpha=0.015
0.1970608279331456
% TCTL (m^2) @ t=183, gamma=0.155, alpha=0.015
2.0672662227130845
% TCN (m^2) @ t=183, gamma=0.155, alpha=0.015
0.20576335097404388
% TCTL (m^2) @ t=184, gamma=0.155, alpha=0.015
2.183338829246369
% TCN (m^2) @ t=184, gamma=0.155, alpha=0.015
0.21420754300937866
% TCTL (m^2) @ t=185, gamma=0.155, alpha=0.015
2.305897126187099
% TCN (m^2) @ t=185, gamma=0.155, alpha=0.015
0.22235943406260206
% TCTL (m^2) @ t=186, gamma=0.155, alpha=0.015
2.4352036622713413
% TCN (m^2) @ t=186, gamma=0.155, alpha=0.015
0.2301571308237499
% TCTL (m^2) @ t=187, gamma=0.155, alpha=0.015
2.57190682888195
% TCN (m^2) @ t=187, gamma=0.155, alpha=0.015
0.23746716943808518
% TCTL (m^2) @ t=188, gamma=0.155, alpha=0.015
2.7162656390630167
% TCN (m^2) @ t=188, gamma=0.155, alpha=0.015
0.24422831243657678
% TCTL (m^2) @ t=189, gamma=0.155, alpha=0.015
2.86857178846002
% TCN (m^2) @ t=189, gamma=0.155, alpha=0.015
0.250373260004297
% TCTL (m^2) @ t=190, gamma=0.155, alpha=0.015
3.0292712556887573
% TCN (m^2) @ t=190, gamma=0.155, alpha=0.015
0.25582185719870354
% TCTL (m^2) @ t=191, gamma=0.155, alpha=0.015
3.1992039921384134
% TCN (m^2) @ t=191, gamma=0.155, alpha=0.015
0.26047824925615387
% TCTL (m^2) @ t=192, gamma=0.155, alpha=0.015
3.378573473341606
% TCN (m^2) @ t=192, gamma=0.155, alpha=0.015
0.26427194498571505
% TCTL (m^2) @ t=193, gamma=0.155, alpha=0.015
3.5678156088774986
% TCN (m^2) @ t=193, gamma=0.155, alpha=0.015
0.2671231906961111
% TCTL (m^2) @ t=194, gamma=0.155, alpha=0.015
3.767733097148263
% TCN (m^2) @ t=194, gamma=0.155, alpha=0.015
0.2690181582701698
% TCTL (m^2) @ t=195, gamma=0.155, alpha=0.015
3.979012138418746
% TCN (m^2) @ t=195, gamma=0.155, alpha=0.015
0.2699220805486733
% TCTL (m^2) @ t=196, gamma=0.155, alpha=0.015
4.202040591518899
% TCN (m^2) @ t=196, gamma=0.155, alpha=0.015
0.26974656733609625
% TCTL (m^2) @ t=197, gamma=0.155, alpha=0.015
4.437363168370666
% TCN (m^2) @ t=197, gamma=0.155, alpha=0.015
0.2684314207631044
% TCTL (m^2) @ t=198, gamma=0.155, alpha=0.015
4.689142553511677
% TCN (m^2) @ t=198, gamma=0.155, alpha=0.015
0.2658122868690545
% TCTL (m^2) @ t=199, gamma=0.155, alpha=0.015
4.954915276761409
% TCN (m^2) @ t=199, gamma=0.155, alpha=0.015
0.2619983123584764
% TCTL (m^2) @ t=200, gamma=0.155, alpha=0.015
5.234643820085809
% TCN (m^2) @ t=200, gamma=0.155, alpha=0.015
0.25699089182493684
% TCTL (m^2) @ t=0, gamma=0.155, alpha=0.0175
0.8999927776353661
% TCN (m^2) @ t=0, gamma=0.155, alpha=0.0175
4.6384710341749335E-4
% TCTL (m^2) @ t=1, gamma=0.155, alpha=0.0175
0.8868868013751966
% TCN (m^2) @ t=1, gamma=0.155, alpha=0.0175
5.214885112624994E-4
% TCTL (m^2) @ t=2, gamma=0.155, alpha=0.0175
0.8821005039670555
% TCN (m^2) @ t=2, gamma=0.155, alpha=0.0175
5.860875007489275E-4
% TCTL (m^2) @ t=3, gamma=0.155, alpha=0.0175
0.8835947747228559
% TCN (m^2) @ t=3, gamma=0.155, alpha=0.0175
6.569132056003103E-4
% TCTL (m^2) @ t=4, gamma=0.155, alpha=0.0175
0.8916703077552146
% TCN (m^2) @ t=4, gamma=0.155, alpha=0.0175
7.357606539269634E-4
% TCTL (m^2) @ t=5, gamma=0.155, alpha=0.0175
0.9060366724115787
% TCN (m^2) @ t=5, gamma=0.155, alpha=0.0175
8.233245597782293E-4
% TCTL (m^2) @ t=6, gamma=0.155, alpha=0.0175
0.9263373961025398
% TCN (m^2) @ t=6, gamma=0.155, alpha=0.0175
9.202139075011742E-4
% TCTL (m^2) @ t=7, gamma=0.155, alpha=0.0175
0.9521875129377984
% TCN (m^2) @ t=7, gamma=0.155, alpha=0.0175
0.0010276362407576354
% TCTL (m^2) @ t=8, gamma=0.155, alpha=0.0175
0.9833277082115915
% TCN (m^2) @ t=8, gamma=0.155, alpha=0.0175
0.00114668715118961
% TCTL (m^2) @ t=9, gamma=0.155, alpha=0.0175
1.0196039293609522
% TCN (m^2) @ t=9, gamma=0.155, alpha=0.0175
0.001278170515951226
% TCTL (m^2) @ t=10, gamma=0.155, alpha=0.0175
1.0607598115676484
% TCN (m^2) @ t=10, gamma=0.155, alpha=0.0175
0.001423773416711644
% TCTL (m^2) @ t=11, gamma=0.155, alpha=0.0175
1.1066355336181712
% TCN (m^2) @ t=11, gamma=0.155, alpha=0.0175
0.0015844917613295879
% TCTL (m^2) @ t=12, gamma=0.155, alpha=0.0175
1.1571764722566131
% TCN (m^2) @ t=12, gamma=0.155, alpha=0.0175
0.001761780264129772
% TCTL (m^2) @ t=13, gamma=0.155, alpha=0.0175
1.212281685442585
% TCN (m^2) @ t=13, gamma=0.155, alpha=0.0175
0.001957003688748667
% TCTL (m^2) @ t=14, gamma=0.155, alpha=0.0175
1.271799414594179
% TCN (m^2) @ t=14, gamma=0.155, alpha=0.0175
0.0021714280063444254
% TCTL (m^2) @ t=15, gamma=0.155, alpha=0.0175
1.336038174249221
% TCN (m^2) @ t=15, gamma=0.155, alpha=0.0175
0.002407139859717441
% TCTL (m^2) @ t=16, gamma=0.155, alpha=0.0175
1.4048414388098065
% TCN (m^2) @ t=16, gamma=0.155, alpha=0.0175
0.0026654013961929456
% TCTL (m^2) @ t=17, gamma=0.155, alpha=0.0175
1.4782693848707988
% TCN (m^2) @ t=17, gamma=0.155, alpha=0.0175
0.0029476740574668958
% TCTL (m^2) @ t=18, gamma=0.155, alpha=0.0175
1.5566478718472387
% TCN (m^2) @ t=18, gamma=0.155, alpha=0.0175
0.0032552561529053943
% TCTL (m^2) @ t=19, gamma=0.155, alpha=0.0175
1.6399435336888344
% TCN (m^2) @ t=19, gamma=0.155, alpha=0.0175
0.003589666560472311
% TCTL (m^2) @ t=20, gamma=0.155, alpha=0.0175
1.7283666571645377
% TCN (m^2) @ t=20, gamma=0.155, alpha=0.0175
0.003951397243824514
% TCTL (m^2) @ t=21, gamma=0.155, alpha=0.0175
1.8221769093794689
% TCN (m^2) @ t=21, gamma=0.155, alpha=0.0175
0.004340567384993749
% TCTL (m^2) @ t=22, gamma=0.155, alpha=0.0175
1.9214664193875395
% TCN (m^2) @ t=22, gamma=0.155, alpha=0.0175
0.004758560942881256
% TCTL (m^2) @ t=23, gamma=0.155, alpha=0.0175
2.0267388651103704
% TCN (m^2) @ t=23, gamma=0.155, alpha=0.0175
0.005203460736974421
% TCTL (m^2) @ t=24, gamma=0.155, alpha=0.0175
2.1384041463598793
% TCN (m^2) @ t=24, gamma=0.155, alpha=0.0175
0.005674110029436623