% Model:              MODEL_SC_3_0.15_II.mph
% Version:            COMSOL 5.6.0.401
% Date:               May 21 2022, 13:12
% Dimension:          0
% Nodes:              12462
% Expressions:        12462
% Description:        , 
% TCTL (m^2) @ t=0, gamma=0.14, alpha=0.015
0.8999899923233377
% TCN (m^2) @ t=0, gamma=0.14, alpha=0.015
4.638411033297796E-4
% TCTL (m^2) @ t=1, gamma=0.14, alpha=0.015
0.8785647313278624
% TCN (m^2) @ t=1, gamma=0.14, alpha=0.015
5.051009960617116E-4
% TCTL (m^2) @ t=2, gamma=0.14, alpha=0.015
0.8629999876039158
% TCN (m^2) @ t=2, gamma=0.14, alpha=0.015
5.506666942872901E-4
% TCTL (m^2) @ t=3, gamma=0.14, alpha=0.015
0.8518761238763584
% TCN (m^2) @ t=3, gamma=0.14, alpha=0.015
6.001924722440806E-4
% TCTL (m^2) @ t=4, gamma=0.14, alpha=0.015
0.8453447795633899
% TCN (m^2) @ t=4, gamma=0.14, alpha=0.015
6.54679507096096E-4
% TCTL (m^2) @ t=5, gamma=0.14, alpha=0.015
0.8433433518600356
% TCN (m^2) @ t=5, gamma=0.14, alpha=0.015
7.148362868123223E-4
% TCTL (m^2) @ t=6, gamma=0.14, alpha=0.015
0.8454928782313504
% TCN (m^2) @ t=6, gamma=0.14, alpha=0.015
7.811837762004536E-4
% TCTL (m^2) @ t=7, gamma=0.14, alpha=0.015
0.8516457013975007
% TCN (m^2) @ t=7, gamma=0.14, alpha=0.015
8.542031034251558E-4
% TCTL (m^2) @ t=8, gamma=0.14, alpha=0.015
0.8615803535986964
% TCN (m^2) @ t=8, gamma=0.14, alpha=0.015
9.344894906690256E-4
% TCTL (m^2) @ t=9, gamma=0.14, alpha=0.015
0.8749648295257841
% TCN (m^2) @ t=9, gamma=0.14, alpha=0.015
0.0010231043497124096
% TCTL (m^2) @ t=10, gamma=0.14, alpha=0.015
0.8917405473870472
% TCN (m^2) @ t=10, gamma=0.14, alpha=0.015
0.0011202487769628208
% TCTL (m^2) @ t=11, gamma=0.14, alpha=0.015
0.9116008547833621
% TCN (m^2) @ t=11, gamma=0.14, alpha=0.015
0.0012269377694583419
% TCTL (m^2) @ t=12, gamma=0.14, alpha=0.015
0.9344582895362704
% TCN (m^2) @ t=12, gamma=0.14, alpha=0.015
0.0013441207786653035
% TCTL (m^2) @ t=13, gamma=0.14, alpha=0.015
0.9601467143007552
% TCN (m^2) @ t=13, gamma=0.14, alpha=0.015
0.001472645256764853
% TCTL (m^2) @ t=14, gamma=0.14, alpha=0.015
0.9885119535959693
% TCN (m^2) @ t=14, gamma=0.14, alpha=0.015
0.0016134136354360282
% TCTL (m^2) @ t=15, gamma=0.14, alpha=0.015
1.0194982655115579
% TCN (m^2) @ t=15, gamma=0.14, alpha=0.015
0.001767510828275871
% TCTL (m^2) @ t=16, gamma=0.14, alpha=0.015
1.0529427030616052
% TCN (m^2) @ t=16, gamma=0.14, alpha=0.015
0.0019358230058336189
% TCTL (m^2) @ t=17, gamma=0.14, alpha=0.015
1.0887194923541885
% TCN (m^2) @ t=17, gamma=0.14, alpha=0.015
0.0021193022020452343
% TCTL (m^2) @ t=18, gamma=0.14, alpha=0.015
1.126945942974199
% TCN (m^2) @ t=18, gamma=0.14, alpha=0.015
0.002319163202409749
% TCTL (m^2) @ t=19, gamma=0.14, alpha=0.015
1.167455411588036
% TCN (m^2) @ t=19, gamma=0.14, alpha=0.015
0.002536313864640982
% TCTL (m^2) @ t=20, gamma=0.14, alpha=0.015
1.2101709694691185
% TCN (m^2) @ t=20, gamma=0.14, alpha=0.015
0.0027717590199431703
% TCTL (m^2) @ t=21, gamma=0.14, alpha=0.015
1.255269665085168
% TCN (m^2) @ t=21, gamma=0.14, alpha=0.015
0.003026253358926939
% TCTL (m^2) @ t=22, gamma=0.14, alpha=0.015
1.3026390582672147
% TCN (m^2) @ t=22, gamma=0.14, alpha=0.015
0.0033008366878001074
% TCTL (m^2) @ t=23, gamma=0.14, alpha=0.015
1.3522551853910671
% TCN (m^2) @ t=23, gamma=0.14, alpha=0.015
0.0035964616727598205
% TCTL (m^2) @ t=24, gamma=0.14, alpha=0.015
1.404275277386989
% TCN (m^2) @ t=24, gamma=0.14, alpha=0.015
0.0039129503457954575
% TCTL (m^2) @ t=25, gamma=0.14, alpha=0.015
1.4586605260391066
% TCN (m^2) @ t=25, gamma=0.14, alpha=0.015
0.004251354065903639
% TCTL (m^2) @ t=26, gamma=0.14, alpha=0.015
1.5154235892920451
% TCN (m^2) @ t=26, gamma=0.14, alpha=0.015
0.004612401456839915
% TCTL (m^2) @ t=27, gamma=0.14, alpha=0.015
1.574826808655702
% TCN (m^2) @ t=27, gamma=0.14, alpha=0.015
0.004995044164101857
% TCTL (m^2) @ t=28, gamma=0.14, alpha=0.015
1.6369516501136774
% TCN (m^2) @ t=28, gamma=0.14, alpha=0.015
0.005399523886029434
% TCTL (m^2) @ t=29, gamma=0.14, alpha=0.015
1.701940795513715
% TCN (m^2) @ t=29, gamma=0.14, alpha=0.015
0.005825645712974966
% TCTL (m^2) @ t=30, gamma=0.14, alpha=0.015
1.7698059555047891
% TCN (m^2) @ t=30, gamma=0.14, alpha=0.015
0.006272829816828624
% TCTL (m^2) @ t=31, gamma=0.14, alpha=0.015
1.8406917940166174
% TCN (m^2) @ t=31, gamma=0.14, alpha=0.015
0.006740435043871142
% TCTL (m^2) @ t=32, gamma=0.14, alpha=0.015
1.9147348265368271
% TCN (m^2) @ t=32, gamma=0.14, alpha=0.015
0.007227629996041351
% TCTL (m^2) @ t=33, gamma=0.14, alpha=0.015
1.9919013349632777
% TCN (m^2) @ t=33, gamma=0.14, alpha=0.015
0.007732558937310242
% TCTL (m^2) @ t=34, gamma=0.14, alpha=0.015
2.0722649075584556
% TCN (m^2) @ t=34, gamma=0.14, alpha=0.015
0.008253694920527233
% TCTL (m^2) @ t=35, gamma=0.14, alpha=0.015
2.1558853884837834
% TCN (m^2) @ t=35, gamma=0.14, alpha=0.015
0.008789231224774693
% TCTL (m^2) @ t=36, gamma=0.14, alpha=0.015
2.2430054336056444
% TCN (m^2) @ t=36, gamma=0.14, alpha=0.015
0.009336229323652384
% TCTL (m^2) @ t=37, gamma=0.14, alpha=0.015
2.333747966060298
% TCN (m^2) @ t=37, gamma=0.14, alpha=0.015
0.009891910362042408
% TCTL (m^2) @ t=38, gamma=0.14, alpha=0.015
2.4282367268010114
% TCN (m^2) @ t=38, gamma=0.14, alpha=0.015
0.010453190460844508
% TCTL (m^2) @ t=39, gamma=0.14, alpha=0.015
2.5266422449284227
% TCN (m^2) @ t=39, gamma=0.14, alpha=0.015
0.011015400661920076
% TCTL (m^2) @ t=40, gamma=0.14, alpha=0.015
2.6291029367925445
% TCN (m^2) @ t=40, gamma=0.14, alpha=0.015
0.011575415330488455
% TCTL (m^2) @ t=41, gamma=0.14, alpha=0.015
2.7357604074512025
% TCN (m^2) @ t=41, gamma=0.14, alpha=0.015
0.01213009023277552
% TCTL (m^2) @ t=42, gamma=0.14, alpha=0.015
2.8468108198415227
% TCN (m^2) @ t=42, gamma=0.14, alpha=0.015
0.012673892697780903
% TCTL (m^2) @ t=43, gamma=0.14, alpha=0.015
2.9624146918062433
% TCN (m^2) @ t=43, gamma=0.14, alpha=0.015
0.013202804124968364
% TCTL (m^2) @ t=44, gamma=0.14, alpha=0.015
3.082723045166177
% TCN (m^2) @ t=44, gamma=0.14, alpha=0.015
0.013713209269342996
% TCTL (m^2) @ t=45, gamma=0.14, alpha=0.015
3.208030727447217
% TCN (m^2) @ t=45, gamma=0.14, alpha=0.015
0.014198241115253103
% TCTL (m^2) @ t=46, gamma=0.14, alpha=0.015
3.3385499061323936
% TCN (m^2) @ t=46, gamma=0.14, alpha=0.015
0.014652790997494784
% TCTL (m^2) @ t=47, gamma=0.14, alpha=0.015
3.474454313501404
% TCN (m^2) @ t=47, gamma=0.14, alpha=0.015
0.01507256764953284
% TCTL (m^2) @ t=48, gamma=0.14, alpha=0.015
3.6159459959572082
% TCN (m^2) @ t=48, gamma=0.14, alpha=0.015
0.015452677650435613
% TCTL (m^2) @ t=49, gamma=0.14, alpha=0.015
3.7632269999027734
% TCN (m^2) @ t=49, gamma=0.14, alpha=0.015
0.015788227579271556
% TCTL (m^2) @ t=50, gamma=0.14, alpha=0.015
3.9164993717410526
% TCN (m^2) @ t=50, gamma=0.14, alpha=0.015
0.016074324015109092
% TCTL (m^2) @ t=51, gamma=0.14, alpha=0.015
4.076129015558308
% TCN (m^2) @ t=51, gamma=0.14, alpha=0.015
0.01631288456370985
% TCTL (m^2) @ t=52, gamma=0.14, alpha=0.015
4.242335207636308
% TCN (m^2) @ t=52, gamma=0.14, alpha=0.015
0.016499731993716085
% TCTL (m^2) @ t=53, gamma=0.14, alpha=0.015
4.415284811937606
% TCN (m^2) @ t=53, gamma=0.14, alpha=0.015
0.016628510465493726
% TCTL (m^2) @ t=54, gamma=0.14, alpha=0.015
4.5952015260381245
% TCN (m^2) @ t=54, gamma=0.14, alpha=0.015
0.016695226526388204
% TCTL (m^2) @ t=55, gamma=0.14, alpha=0.015
4.782309047513766
% TCN (m^2) @ t=55, gamma=0.14, alpha=0.015
0.016695886723744963
% TCTL (m^2) @ t=56, gamma=0.14, alpha=0.015
4.976979270091764
% TCN (m^2) @ t=56, gamma=0.14, alpha=0.015
0.016632792396136957
% TCTL (m^2) @ t=57, gamma=0.14, alpha=0.015
5.179992031984632
% TCN (m^2) @ t=57, gamma=0.14, alpha=0.015
0.01652557276375989
% TCTL (m^2) @ t=58, gamma=0.14, alpha=0.015
5.391260212365127
% TCN (m^2) @ t=58, gamma=0.14, alpha=0.015
0.016357032027340138
% TCTL (m^2) @ t=59, gamma=0.14, alpha=0.015
5.611064623188646
% TCN (m^2) @ t=59, gamma=0.14, alpha=0.015
0.01612560272903969
% TCTL (m^2) @ t=60, gamma=0.14, alpha=0.015
5.839686076410608
% TCN (m^2) @ t=60, gamma=0.14, alpha=0.015
0.015829717411020853
% TCTL (m^2) @ t=61, gamma=0.14, alpha=0.015
6.077405383986422
% TCN (m^2) @ t=61, gamma=0.14, alpha=0.015
0.01546780861544593
% TCTL (m^2) @ t=62, gamma=0.14, alpha=0.015
6.325077682198938
% TCN (m^2) @ t=62, gamma=0.14, alpha=0.015
0.015066126811833263
% TCTL (m^2) @ t=63, gamma=0.14, alpha=0.015
6.582914291148993
% TCN (m^2) @ t=63, gamma=0.14, alpha=0.015
0.014619738640413812
% TCTL (m^2) @ t=64, gamma=0.14, alpha=0.015
6.85113097327614
% TCN (m^2) @ t=64, gamma=0.14, alpha=0.015
0.014123925910184226
% TCTL (m^2) @ t=65, gamma=0.14, alpha=0.015
7.13006934316093
% TCN (m^2) @ t=65, gamma=0.14, alpha=0.015
0.013580066194413563
% TCTL (m^2) @ t=66, gamma=0.14, alpha=0.015
7.420071015383945
% TCN (m^2) @ t=66, gamma=0.14, alpha=0.015
0.012989537066371052
% TCTL (m^2) @ t=67, gamma=0.14, alpha=0.015
7.721678056839714
% TCN (m^2) @ t=67, gamma=0.14, alpha=0.015
0.012360724406086824
% TCTL (m^2) @ t=68, gamma=0.14, alpha=0.015
8.035679753795751
% TCN (m^2) @ t=68, gamma=0.14, alpha=0.015
0.011710657491956772
% TCTL (m^2) @ t=69, gamma=0.14, alpha=0.015
8.362158521610406
% TCN (m^2) @ t=69, gamma=0.14, alpha=0.015
0.011031651653838803
% TCTL (m^2) @ t=70, gamma=0.14, alpha=0.015
8.7015133557341
% TCN (m^2) @ t=70, gamma=0.14, alpha=0.015
0.01032709064158411
% TCTL (m^2) @ t=71, gamma=0.14, alpha=0.015
9.054143251617221
% TCN (m^2) @ t=71, gamma=0.14, alpha=0.015
0.009600358205043798
% TCTL (m^2) @ t=72, gamma=0.14, alpha=0.015
9.420447204710197
% TCN (m^2) @ t=72, gamma=0.14, alpha=0.015
0.008854838094068965
% TCTL (m^2) @ t=73, gamma=0.14, alpha=0.015
9.799842524083509
% TCN (m^2) @ t=73, gamma=0.14, alpha=0.015
0.008138556871326972
% TCTL (m^2) @ t=74, gamma=0.14, alpha=0.015
10.193018628459246
% TCN (m^2) @ t=74, gamma=0.14, alpha=0.015
0.007441691103580128
% TCTL (m^2) @ t=75, gamma=0.14, alpha=0.015
10.600398458133787
% TCN (m^2) @ t=75, gamma=0.14, alpha=0.015
0.006766535633573292
% TCTL (m^2) @ t=76, gamma=0.14, alpha=0.015
11.022289881508987
% TCN (m^2) @ t=76, gamma=0.14, alpha=0.015
0.006120618271677739
% TCTL (m^2) @ t=77, gamma=0.14, alpha=0.015
11.459000766986719
% TCN (m^2) @ t=77, gamma=0.14, alpha=0.015
0.005511466828264739
% TCTL (m^2) @ t=78, gamma=0.14, alpha=0.015
11.908503421081996
% TCN (m^2) @ t=78, gamma=0.14, alpha=0.015
0.004936469731168977
% TCTL (m^2) @ t=79, gamma=0.14, alpha=0.015
12.368260891230609
% TCN (m^2) @ t=79, gamma=0.14, alpha=0.015
0.004380791334792641
% TCTL (m^2) @ t=80, gamma=0.14, alpha=0.015
12.840881200526075
% TCN (m^2) @ t=80, gamma=0.14, alpha=0.015
0.003852804930095311
% TCTL (m^2) @ t=81, gamma=0.14, alpha=0.015
13.326364348968431
% TCN (m^2) @ t=81, gamma=0.14, alpha=0.015
0.003352510517077069
% TCTL (m^2) @ t=82, gamma=0.14, alpha=0.015
13.82471033655765
% TCN (m^2) @ t=82, gamma=0.14, alpha=0.015
0.0028799080957378816
% TCTL (m^2) @ t=83, gamma=0.14, alpha=0.015
14.292197305350872
% TCN (m^2) @ t=83, gamma=0.14, alpha=0.015
0.002460094828468198
% TCTL (m^2) @ t=84, gamma=0.14, alpha=0.015
14.733720814439511
% TCN (m^2) @ t=84, gamma=0.14, alpha=0.015
0.0020902605729892715
% TCTL (m^2) @ t=85, gamma=0.14, alpha=0.015
15.164881934897743
% TCN (m^2) @ t=85, gamma=0.14, alpha=0.015
0.0017614500233595618
% TCTL (m^2) @ t=86, gamma=0.14, alpha=0.015
15.585680666725551
% TCN (m^2) @ t=86, gamma=0.14, alpha=0.015
0.0014736631795790635
% TCTL (m^2) @ t=87, gamma=0.14, alpha=0.015
15.94112337025991
% TCN (m^2) @ t=87, gamma=0.14, alpha=0.015
0.0012219941166465445
% TCTL (m^2) @ t=88, gamma=0.14, alpha=0.015
16.1812295337463
% TCN (m^2) @ t=88, gamma=0.14, alpha=0.015
0.0010019841254513906
% TCTL (m^2) @ t=89, gamma=0.14, alpha=0.015
16.358913147672805
% TCN (m^2) @ t=89, gamma=0.14, alpha=0.015
8.183536076699054E-4
% TCTL (m^2) @ t=90, gamma=0.14, alpha=0.015
16.30200474524597
% TCN (m^2) @ t=90, gamma=0.14, alpha=0.015
6.572583409982046E-4
% TCTL (m^2) @ t=91, gamma=0.14, alpha=0.015
16.08186253342268
% TCN (m^2) @ t=91, gamma=0.14, alpha=0.015
5.244362701410884E-4
% TCTL (m^2) @ t=92, gamma=0.14, alpha=0.015
15.661708988518445
% TCN (m^2) @ t=92, gamma=0.14, alpha=0.015
4.148300873722282E-4
% TCTL (m^2) @ t=93, gamma=0.14, alpha=0.015
15.011721829357256
% TCN (m^2) @ t=93, gamma=0.14, alpha=0.015
3.243640460193199E-4
% TCTL (m^2) @ t=94, gamma=0.14, alpha=0.015
14.188756842389317
% TCN (m^2) @ t=94, gamma=0.14, alpha=0.015
2.5324289442098E-4
% TCTL (m^2) @ t=95, gamma=0.14, alpha=0.015
13.285429135039154
% TCN (m^2) @ t=95, gamma=0.14, alpha=0.015
1.9453295462713372E-4
% TCTL (m^2) @ t=96, gamma=0.14, alpha=0.015
12.271313500448594
% TCN (m^2) @ t=96, gamma=0.14, alpha=0.015
1.508369056737999E-4
% TCTL (m^2) @ t=97, gamma=0.14, alpha=0.015
11.278794687378493
% TCN (m^2) @ t=97, gamma=0.14, alpha=0.015
1.1550307321377465E-4
% TCTL (m^2) @ t=98, gamma=0.14, alpha=0.015
10.276442854542225
% TCN (m^2) @ t=98, gamma=0.14, alpha=0.015
9.000961662655637E-5
% TCTL (m^2) @ t=99, gamma=0.14, alpha=0.015
9.33999337892061
% TCN (m^2) @ t=99, gamma=0.14, alpha=0.015
7.020724935665807E-5
% TCTL (m^2) @ t=100, gamma=0.14, alpha=0.015
8.4657214235013
% TCN (m^2) @ t=100, gamma=0.14, alpha=0.015
5.55775045825726E-5
% TCTL (m^2) @ t=101, gamma=0.14, alpha=0.015
7.668610182011996
% TCN (m^2) @ t=101, gamma=0.14, alpha=0.015
4.483164551113115E-5
% TCTL (m^2) @ t=102, gamma=0.14, alpha=0.015
6.944843620048577
% TCN (m^2) @ t=102, gamma=0.14, alpha=0.015
3.634133237615108E-5
% TCTL (m^2) @ t=103, gamma=0.14, alpha=0.015
6.288675040179003
% TCN (m^2) @ t=103, gamma=0.14, alpha=0.015
3.0200529631385914E-5
% TCTL (m^2) @ t=104, gamma=0.14, alpha=0.015
5.687603089467072
% TCN (m^2) @ t=104, gamma=0.14, alpha=0.015
2.52534280243056E-5
% TCTL (m^2) @ t=105, gamma=0.14, alpha=0.015
5.143446544470281
% TCN (m^2) @ t=105, gamma=0.14, alpha=0.015
2.1602471839161852E-5
% TCTL (m^2) @ t=106, gamma=0.14, alpha=0.015
4.653079537038805
% TCN (m^2) @ t=106, gamma=0.14, alpha=0.015
1.8898265934917223E-5
% TCTL (m^2) @ t=107, gamma=0.14, alpha=0.015
4.209880965301874
% TCN (m^2) @ t=107, gamma=0.14, alpha=0.015
1.692706759079117E-5
% TCTL (m^2) @ t=108, gamma=0.14, alpha=0.015
3.8098226508174067
% TCN (m^2) @ t=108, gamma=0.14, alpha=0.015
1.547913560957153E-5
% TCTL (m^2) @ t=109, gamma=0.14, alpha=0.015
3.448095260780886
% TCN (m^2) @ t=109, gamma=0.14, alpha=0.015
1.4434654822534047E-5
% TCTL (m^2) @ t=110, gamma=0.14, alpha=0.015
3.1209698517572484
% TCN (m^2) @ t=110, gamma=0.14, alpha=0.015
1.3704584834048666E-5
% TCTL (m^2) @ t=111, gamma=0.14, alpha=0.015
2.824765084927972
% TCN (m^2) @ t=111, gamma=0.14, alpha=0.015
1.3223316139580948E-5
% TCTL (m^2) @ t=112, gamma=0.14, alpha=0.015
2.556837922670848
% TCN (m^2) @ t=112, gamma=0.14, alpha=0.015
1.2985690689694381E-5
% TCTL (m^2) @ t=113, gamma=0.14, alpha=0.015
2.3140500486450297
% TCN (m^2) @ t=113, gamma=0.14, alpha=0.015
1.2950019218456152E-5
% TCTL (m^2) @ t=114, gamma=0.14, alpha=0.015
2.094213178852298
% TCN (m^2) @ t=114, gamma=0.14, alpha=0.015
1.312617918853367E-5
% TCTL (m^2) @ t=115, gamma=0.14, alpha=0.015
1.8951170995901505
% TCN (m^2) @ t=115, gamma=0.14, alpha=0.015
1.3506495497402005E-5
% TCTL (m^2) @ t=116, gamma=0.14, alpha=0.015
1.7149153861017563
% TCN (m^2) @ t=116, gamma=0.14, alpha=0.015
1.4096583614600688E-5
% TCTL (m^2) @ t=117, gamma=0.14, alpha=0.015
1.5516604191363905
% TCN (m^2) @ t=117, gamma=0.14, alpha=0.015
1.4901213843686126E-5
% TCTL (m^2) @ t=118, gamma=0.14, alpha=0.015
1.4037597761779512
% TCN (m^2) @ t=118, gamma=0.14, alpha=0.015
1.5933724023549717E-5
% TCTL (m^2) @ t=119, gamma=0.14, alpha=0.015
1.2697476092305346
% TCN (m^2) @ t=119, gamma=0.14, alpha=0.015
1.7210696568958573E-5
% TCTL (m^2) @ t=120, gamma=0.14, alpha=0.015
1.148439734944595
% TCN (m^2) @ t=120, gamma=0.14, alpha=0.015
1.878528086121735E-5
% TCTL (m^2) @ t=121, gamma=0.14, alpha=0.015
1.0387532069864194
% TCN (m^2) @ t=121, gamma=0.14, alpha=0.015
2.0694903730296763E-5
% TCTL (m^2) @ t=122, gamma=0.14, alpha=0.015
0.9398086045930124
% TCN (m^2) @ t=122, gamma=0.14, alpha=0.015
2.299091357975708E-5
% TCTL (m^2) @ t=123, gamma=0.14, alpha=0.015
0.8503789636271302
% TCN (m^2) @ t=123, gamma=0.14, alpha=0.015
2.5740648579133462E-5
% TCTL (m^2) @ t=124, gamma=0.14, alpha=0.015
0.7694293517177038
% TCN (m^2) @ t=124, gamma=0.14, alpha=0.015
2.9020185681017857E-5
% TCTL (m^2) @ t=125, gamma=0.14, alpha=0.015
0.6963615022448527
% TCN (m^2) @ t=125, gamma=0.14, alpha=0.015
3.2911526754062614E-5
% TCTL (m^2) @ t=126, gamma=0.14, alpha=0.015
0.6304337559387005
% TCN (m^2) @ t=126, gamma=0.14, alpha=0.015
3.752183696466947E-5
% TCTL (m^2) @ t=127, gamma=0.14, alpha=0.015
0.570837334458319
% TCN (m^2) @ t=127, gamma=0.14, alpha=0.015
4.299322180353154E-5
% TCTL (m^2) @ t=128, gamma=0.14, alpha=0.015
0.5170968003603966
% TCN (m^2) @ t=128, gamma=0.14, alpha=0.015
4.9445297322171046E-5
% TCTL (m^2) @ t=129, gamma=0.14, alpha=0.015
0.46871905782447976
% TCN (m^2) @ t=129, gamma=0.14, alpha=0.015
5.7030839775277327E-5
% TCTL (m^2) @ t=130, gamma=0.14, alpha=0.015
0.4250693267048923
% TCN (m^2) @ t=130, gamma=0.14, alpha=0.015
6.603116274293944E-5
% TCTL (m^2) @ t=131, gamma=0.14, alpha=0.015
0.3858237416716704
% TCN (m^2) @ t=131, gamma=0.14, alpha=0.015
7.662609545028488E-5
% TCTL (m^2) @ t=132, gamma=0.14, alpha=0.015
0.3506489403551783
% TCN (m^2) @ t=132, gamma=0.14, alpha=0.015
8.905682371594308E-5
% TCTL (m^2) @ t=133, gamma=0.14, alpha=0.015
0.31914384450046696
% TCN (m^2) @ t=133, gamma=0.14, alpha=0.015
1.0374141392196658E-4
% TCTL (m^2) @ t=134, gamma=0.14, alpha=0.015
0.29104903542934907
% TCN (m^2) @ t=134, gamma=0.14, alpha=0.015
1.2103627041587854E-4
% TCTL (m^2) @ t=135, gamma=0.14, alpha=0.015
0.26617734691884964
% TCN (m^2) @ t=135, gamma=0.14, alpha=0.015
1.4131521142017508E-4
% TCTL (m^2) @ t=136, gamma=0.14, alpha=0.015
0.2443199413329234
% TCN (m^2) @ t=136, gamma=0.14, alpha=0.015
1.6511991200812871E-4
% TCTL (m^2) @ t=137, gamma=0.14, alpha=0.015
0.2252687911048727
% TCN (m^2) @ t=137, gamma=0.14, alpha=0.015
1.9313195262915696E-4
% TCTL (m^2) @ t=138, gamma=0.14, alpha=0.015
0.20892145503460915
% TCN (m^2) @ t=138, gamma=0.14, alpha=0.015
2.259752276903683E-4
% TCTL (m^2) @ t=139, gamma=0.14, alpha=0.015
0.19516079981267953
% TCN (m^2) @ t=139, gamma=0.14, alpha=0.015
2.6443335084382275E-4
% TCTL (m^2) @ t=140, gamma=0.14, alpha=0.015
0.18382282983296402
% TCN (m^2) @ t=140, gamma=0.14, alpha=0.015
3.094717584547125E-4
% TCTL (m^2) @ t=141, gamma=0.14, alpha=0.015
0.174819158492865
% TCN (m^2) @ t=141, gamma=0.14, alpha=0.015
3.6209199279346044E-4
% TCTL (m^2) @ t=142, gamma=0.14, alpha=0.015
0.16803853040421887
% TCN (m^2) @ t=142, gamma=0.14, alpha=0.015
4.234531431785738E-4
% TCTL (m^2) @ t=143, gamma=0.14, alpha=0.015
0.16329621377248532
% TCN (m^2) @ t=143, gamma=0.14, alpha=0.015
4.950043930528269E-4
% TCTL (m^2) @ t=144, gamma=0.14, alpha=0.015
0.16043948925860432
% TCN (m^2) @ t=144, gamma=0.14, alpha=0.015
5.782467247308275E-4
% TCTL (m^2) @ t=145, gamma=0.14, alpha=0.015
0.1592728052300011
% TCN (m^2) @ t=145, gamma=0.14, alpha=0.015
6.748961555555768E-4
% TCTL (m^2) @ t=146, gamma=0.14, alpha=0.015
0.1596306189646907
% TCN (m^2) @ t=146, gamma=0.14, alpha=0.015
7.869868036292196E-4
% TCTL (m^2) @ t=147, gamma=0.14, alpha=0.015
0.16131524846306722
% TCN (m^2) @ t=147, gamma=0.14, alpha=0.015
9.167874713149555E-4
% TCTL (m^2) @ t=148, gamma=0.14, alpha=0.015
0.1640574370301559
% TCN (m^2) @ t=148, gamma=0.14, alpha=0.015
0.0010667626692754503
% TCTL (m^2) @ t=149, gamma=0.14, alpha=0.015
0.16766452158206469
% TCN (m^2) @ t=149, gamma=0.14, alpha=0.015
0.0012397405302791338
% TCTL (m^2) @ t=150, gamma=0.14, alpha=0.015
0.17210985433560694
% TCN (m^2) @ t=150, gamma=0.14, alpha=0.015
0.0014389640415123765
% TCTL (m^2) @ t=151, gamma=0.14, alpha=0.015
0.17715445001132613
% TCN (m^2) @ t=151, gamma=0.14, alpha=0.015
0.0016678973031134957
% TCTL (m^2) @ t=152, gamma=0.14, alpha=0.015
0.18267320643641535
% TCN (m^2) @ t=152, gamma=0.14, alpha=0.015
0.001930451757566689
% TCTL (m^2) @ t=153, gamma=0.14, alpha=0.015
0.18881388960734946
% TCN (m^2) @ t=153, gamma=0.14, alpha=0.015
0.002231310564130653
% TCTL (m^2) @ t=154, gamma=0.14, alpha=0.015
0.1954629653826715
% TCN (m^2) @ t=154, gamma=0.14, alpha=0.015
0.0025749857383075754
% TCTL (m^2) @ t=155, gamma=0.14, alpha=0.015
0.2026312482992577
% TCN (m^2) @ t=155, gamma=0.14, alpha=0.015
0.002966526593337151
% TCTL (m^2) @ t=156, gamma=0.14, alpha=0.015
0.21027996593898932
% TCN (m^2) @ t=156, gamma=0.14, alpha=0.015
0.003412223546774438
% TCTL (m^2) @ t=157, gamma=0.14, alpha=0.015
0.21844373446309223
% TCN (m^2) @ t=157, gamma=0.14, alpha=0.015
0.003918241100395903
% TCTL (m^2) @ t=158, gamma=0.14, alpha=0.015
0.22718789908782128
% TCN (m^2) @ t=158, gamma=0.14, alpha=0.015
0.0044910920518158575
% TCTL (m^2) @ t=159, gamma=0.14, alpha=0.015
0.23648598024438633
% TCN (m^2) @ t=159, gamma=0.14, alpha=0.015
0.005138510055115089
% TCTL (m^2) @ t=160, gamma=0.14, alpha=0.015
0.24627444450906671
% TCN (m^2) @ t=160, gamma=0.14, alpha=0.015
0.005869048816477399
% TCTL (m^2) @ t=161, gamma=0.14, alpha=0.015
0.25662828232347107
% TCN (m^2) @ t=161, gamma=0.14, alpha=0.015
0.006690962436042866
% TCTL (m^2) @ t=162, gamma=0.14, alpha=0.015
0.2675491142773486
% TCN (m^2) @ t=162, gamma=0.14, alpha=0.015
0.007613618029151937
% TCTL (m^2) @ t=163, gamma=0.14, alpha=0.015
0.27893287886454965
% TCN (m^2) @ t=163, gamma=0.14, alpha=0.015
0.008647904428015732
% TCTL (m^2) @ t=164, gamma=0.14, alpha=0.015
0.29080300380755875
% TCN (m^2) @ t=164, gamma=0.14, alpha=0.015
0.009804192208648543
% TCTL (m^2) @ t=165, gamma=0.14, alpha=0.015
0.30313334111422446
% TCN (m^2) @ t=165, gamma=0.14, alpha=0.015
0.011093882799516635
% TCTL (m^2) @ t=166, gamma=0.14, alpha=0.015
0.31593158567492585
% TCN (m^2) @ t=166, gamma=0.14, alpha=0.015
0.012529697582330707
% TCTL (m^2) @ t=167, gamma=0.14, alpha=0.015
0.32916664089466324
% TCN (m^2) @ t=167, gamma=0.14, alpha=0.015
0.01412440526238576
% TCTL (m^2) @ t=168, gamma=0.14, alpha=0.015
0.34281446973142804
% TCN (m^2) @ t=168, gamma=0.14, alpha=0.015
0.015891625226434745
% TCTL (m^2) @ t=169, gamma=0.14, alpha=0.015
0.3569159401846062
% TCN (m^2) @ t=169, gamma=0.14, alpha=0.015
0.01784561092537279
% TCTL (m^2) @ t=170, gamma=0.14, alpha=0.015
0.37150211460417415
% TCN (m^2) @ t=170, gamma=0.14, alpha=0.015
0.02000131415784024
% TCTL (m^2) @ t=171, gamma=0.14, alpha=0.015
0.3865724996475418
% TCN (m^2) @ t=171, gamma=0.14, alpha=0.015
0.022374409459102365
% TCTL (m^2) @ t=172, gamma=0.14, alpha=0.015
0.4022340323159363
% TCN (m^2) @ t=172, gamma=0.14, alpha=0.015
0.0249819735330155
% TCTL (m^2) @ t=173, gamma=0.14, alpha=0.015
0.4186877878627381
% TCN (m^2) @ t=173, gamma=0.14, alpha=0.015
0.02784120107010235
% TCTL (m^2) @ t=174, gamma=0.14, alpha=0.015
0.43591678713846976
% TCN (m^2) @ t=174, gamma=0.14, alpha=0.015
0.030967014097606542
% TCTL (m^2) @ t=175, gamma=0.14, alpha=0.015
0.4539841779383057
% TCN (m^2) @ t=175, gamma=0.14, alpha=0.015
0.034375668402954335
% TCTL (m^2) @ t=176, gamma=0.14, alpha=0.015
0.4729048713979922
% TCN (m^2) @ t=176, gamma=0.14, alpha=0.015
0.03808733722294298
% TCTL (m^2) @ t=177, gamma=0.14, alpha=0.015
0.49275667926209776
% TCN (m^2) @ t=177, gamma=0.14, alpha=0.015
0.04211708543999006
% TCTL (m^2) @ t=178, gamma=0.14, alpha=0.015
0.5135963631204725
% TCN (m^2) @ t=178, gamma=0.14, alpha=0.015
0.04648168748514953
% TCTL (m^2) @ t=179, gamma=0.14, alpha=0.015
0.5351939382572294
% TCN (m^2) @ t=179, gamma=0.14, alpha=0.015
0.05119775629581115
% TCTL (m^2) @ t=180, gamma=0.14, alpha=0.015
0.5575660905620174
% TCN (m^2) @ t=180, gamma=0.14, alpha=0.015
0.05628204373265416
% TCTL (m^2) @ t=181, gamma=0.14, alpha=0.015
0.5807420145970101
% TCN (m^2) @ t=181, gamma=0.14, alpha=0.015
0.06175130870116022
% TCTL (m^2) @ t=182, gamma=0.14, alpha=0.015
0.6045853788853792
% TCN (m^2) @ t=182, gamma=0.14, alpha=0.015
0.06761845570257065
% TCTL (m^2) @ t=183, gamma=0.14, alpha=0.015
0.6289421170522981
% TCN (m^2) @ t=183, gamma=0.14, alpha=0.015
0.0738958397315985
% TCTL (m^2) @ t=184, gamma=0.14, alpha=0.015
0.6538169915443092
% TCN (m^2) @ t=184, gamma=0.14, alpha=0.015
0.08060073701081313
% TCTL (m^2) @ t=185, gamma=0.14, alpha=0.015
0.6791564518825965
% TCN (m^2) @ t=185, gamma=0.14, alpha=0.015
0.08774497262658662
% TCTL (m^2) @ t=186, gamma=0.14, alpha=0.015
0.70494291694218
% TCN (m^2) @ t=186, gamma=0.14, alpha=0.015
0.09532903917164016
% TCTL (m^2) @ t=187, gamma=0.14, alpha=0.015
0.7311033195309945
% TCN (m^2) @ t=187, gamma=0.14, alpha=0.015
0.10337091066207171
% TCTL (m^2) @ t=188, gamma=0.14, alpha=0.015
0.7575841783895134
% TCN (m^2) @ t=188, gamma=0.14, alpha=0.015
0.11188239037604394
% TCTL (m^2) @ t=189, gamma=0.14, alpha=0.015
0.7869588986202324
% TCN (m^2) @ t=189, gamma=0.14, alpha=0.015
0.12087188252195366
% TCTL (m^2) @ t=190, gamma=0.14, alpha=0.015
0.8180019371288926
% TCN (m^2) @ t=190, gamma=0.14, alpha=0.015
0.1303325659435678
% TCTL (m^2) @ t=191, gamma=0.14, alpha=0.015
0.8506363233229735
% TCN (m^2) @ t=191, gamma=0.14, alpha=0.015
0.1402643026485133
% TCTL (m^2) @ t=192, gamma=0.14, alpha=0.015
0.8848620572024721
% TCN (m^2) @ t=192, gamma=0.14, alpha=0.015
0.1506670926367925
% TCTL (m^2) @ t=193, gamma=0.14, alpha=0.015
0.9205067086602052
% TCN (m^2) @ t=193, gamma=0.14, alpha=0.015
0.161492243870585
% TCTL (m^2) @ t=194, gamma=0.14, alpha=0.015
0.9576511543381112
% TCN (m^2) @ t=194, gamma=0.14, alpha=0.015
0.17276259487021695
% TCTL (m^2) @ t=195, gamma=0.14, alpha=0.015
0.9963100557633626
% TCN (m^2) @ t=195, gamma=0.14, alpha=0.015
0.18448228586182194
% TCTL (m^2) @ t=196, gamma=0.14, alpha=0.015
1.0365525165748923
% TCN (m^2) @ t=196, gamma=0.14, alpha=0.015
0.19660730853765512
% TCTL (m^2) @ t=197, gamma=0.14, alpha=0.015
1.0786041250581992
% TCN (m^2) @ t=197, gamma=0.14, alpha=0.015
0.20899399812338282
% TCTL (m^2) @ t=198, gamma=0.14, alpha=0.015
1.1223113436901127
% TCN (m^2) @ t=198, gamma=0.14, alpha=0.015
0.22174013422475652
% TCTL (m^2) @ t=199, gamma=0.14, alpha=0.015
1.167674172470628
% TCN (m^2) @ t=199, gamma=0.14, alpha=0.015
0.23484571684177583
% TCTL (m^2) @ t=200, gamma=0.14, alpha=0.015
1.2149637430235507
% TCN (m^2) @ t=200, gamma=0.14, alpha=0.015
0.24817661710778693
% TCTL (m^2) @ t=0, gamma=0.14, alpha=0.0175
0.8999899925675577
% TCN (m^2) @ t=0, gamma=0.14, alpha=0.0175
4.6384710348295385E-4
% TCTL (m^2) @ t=1, gamma=0.14, alpha=0.0175
0.8797813182520258
% TCN (m^2) @ t=1, gamma=0.14, alpha=0.0175
5.219921751350576E-4
% TCTL (m^2) @ t=2, gamma=0.14, alpha=0.0175
0.8673525343142937
% TCN (m^2) @ t=2, gamma=0.14, alpha=0.0175
5.878895271213079E-4
% TCTL (m^2) @ t=3, gamma=0.14, alpha=0.0175
0.860659750183226
% TCN (m^2) @ t=3, gamma=0.14, alpha=0.0175
6.608416212009389E-4
% TCTL (m^2) @ t=4, gamma=0.14, alpha=0.0175
0.8597047628462066
% TCN (m^2) @ t=4, gamma=0.14, alpha=0.0175
7.42625378835187E-4
% TCTL (m^2) @ t=5, gamma=0.14, alpha=0.0175
0.8642408473718622
% TCN (m^2) @ t=5, gamma=0.14, alpha=0.0175
8.34533944349393E-4
% TCTL (m^2) @ t=6, gamma=0.14, alpha=0.0175
0.8736306994296169
% TCN (m^2) @ t=6, gamma=0.14, alpha=0.0175
9.37602167806092E-4
% TCTL (m^2) @ t=7, gamma=0.14, alpha=0.0175
0.8876034228939998
% TCN (m^2) @ t=7, gamma=0.14, alpha=0.0175
0.0010528043806694203
% TCTL (m^2) @ t=8, gamma=0.14, alpha=0.0175
0.9057656366872828
% TCN (m^2) @ t=8, gamma=0.14, alpha=0.0175
0.0011813455733813106
% TCTL (m^2) @ t=9, gamma=0.14, alpha=0.0175
0.9275707826274308
% TCN (m^2) @ t=9, gamma=0.14, alpha=0.0175
0.0013254664418753054
% TCTL (m^2) @ t=10, gamma=0.14, alpha=0.0175
0.9529338344969445
% TCN (m^2) @ t=10, gamma=0.14, alpha=0.0175
0.0014856125769961148
% TCTL (m^2) @ t=11, gamma=0.14, alpha=0.0175
0.9813713303498535
% TCN (m^2) @ t=11, gamma=0.14, alpha=0.0175
0.0016639672902910834
% TCTL (m^2) @ t=12, gamma=0.14, alpha=0.0175
1.012834111442852
% TCN (m^2) @ t=12, gamma=0.14, alpha=0.0175
0.0018627538398453569
% TCTL (m^2) @ t=13, gamma=0.14, alpha=0.0175
1.0471002321195595
% TCN (m^2) @ t=13, gamma=0.14, alpha=0.0175
0.0020838767280938865
% TCTL (m^2) @ t=14, gamma=0.14, alpha=0.0175
1.0839766754856948
% TCN (m^2) @ t=14, gamma=0.14, alpha=0.0175
0.002329383751008076
% TCTL (m^2) @ t=15, gamma=0.14, alpha=0.0175
1.1234215685228224
% TCN (m^2) @ t=15, gamma=0.14, alpha=0.0175
0.0026018284867487347
% TCTL (m^2) @ t=16, gamma=0.14, alpha=0.0175
1.1652284085002442
% TCN (m^2) @ t=16, gamma=0.14, alpha=0.0175
0.00290321360279074
% TCTL (m^2) @ t=17, gamma=0.14, alpha=0.0175
1.209248128399587
% TCN (m^2) @ t=17, gamma=0.14, alpha=0.0175
0.0032357266603488337
% TCTL (m^2) @ t=18, gamma=0.14, alpha=0.0175
1.2557227577571353
% TCN (m^2) @ t=18, gamma=0.14, alpha=0.0175
0.0036024180632943863
% TCTL (m^2) @ t=19, gamma=0.14, alpha=0.0175
1.3044374132035208
% TCN (m^2) @ t=19, gamma=0.14, alpha=0.0175
0.004005330167893505
% TCTL (m^2) @ t=20, gamma=0.14, alpha=0.0175
1.355321580179311
% TCN (m^2) @ t=20, gamma=0.14, alpha=0.0175
0.004446823838887969
% TCTL (m^2) @ t=21, gamma=0.14, alpha=0.0175
1.408654746872277
% TCN (m^2) @ t=21, gamma=0.14, alpha=0.0175
0.004929083823334387
% TCTL (m^2) @ t=22, gamma=0.14, alpha=0.0175
1.4643173175156996
% TCN (m^2) @ t=22, gamma=0.14, alpha=0.0175
0.00545449568311957
% TCTL (m^2) @ t=23, gamma=0.14, alpha=0.0175
1.5223118015236077
% TCN (m^2) @ t=23, gamma=0.14, alpha=0.0175
0.006025383538093303
% TCTL (m^2) @ t=24, gamma=0.14, alpha=0.0175
1.5828144895868492
% TCN (m^2) @ t=24, gamma=0.14, alpha=0.0175
0.006641789223536395
% TCTL (m^2) @ t=25, gamma=0.14, alpha=0.0175
1.645813987013447
% TCN (m^2) @ t=25, gamma=0.14, alpha=0.0175
0.007306238752667169
% TCTL (m^2) @ t=26, gamma=0.14, alpha=0.0175
1.7113482558399167
% TCN (m^2) @ t=26, gamma=0.14, alpha=0.0175
0.008020604859827812
% TCTL (m^2) @ t=27, gamma=0.14, alpha=0.0175
1.7797438043249731
% TCN (m^2) @ t=27, gamma=0.14, alpha=0.0175
0.008782717649204814