% Model:              MODEL_SC_3_0.15_II.mph
% Version:            COMSOL 5.6.0.401
% Date:               May 21 2022, 13:18
% Dimension:          0
% Nodes:              12462
% Expressions:        12462
% Description:        , 
% TCTL (m^2) @ t=0, gamma=0.1675, alpha=0.015
0.8999950982428844
% TCN (m^2) @ t=0, gamma=0.1675, alpha=0.015
4.638411032097706E-4
% TCTL (m^2) @ t=1, gamma=0.1675, alpha=0.015
0.8915790742853535
% TCN (m^2) @ t=1, gamma=0.1675, alpha=0.015
5.044085103975676E-4
% TCTL (m^2) @ t=2, gamma=0.1675, alpha=0.015
0.8893782104020849
% TCN (m^2) @ t=2, gamma=0.1675, alpha=0.015
5.479321465702576E-4
% TCTL (m^2) @ t=3, gamma=0.1675, alpha=0.015
0.8923796699869424
% TCN (m^2) @ t=3, gamma=0.1675, alpha=0.015
5.943674073690477E-4
% TCTL (m^2) @ t=4, gamma=0.1675, alpha=0.015
0.901027538701539
% TCN (m^2) @ t=4, gamma=0.1675, alpha=0.015
6.444970328147465E-4
% TCTL (m^2) @ t=5, gamma=0.1675, alpha=0.015
0.9151645678044575
% TCN (m^2) @ t=5, gamma=0.1675, alpha=0.015
6.98634240126478E-4
% TCTL (m^2) @ t=6, gamma=0.1675, alpha=0.015
0.9347416514470871
% TCN (m^2) @ t=6, gamma=0.1675, alpha=0.015
7.571113125493298E-4
% TCTL (m^2) @ t=7, gamma=0.1675, alpha=0.015
0.959726884881174
% TCN (m^2) @ t=7, gamma=0.1675, alpha=0.015
8.203687152686677E-4
% TCTL (m^2) @ t=8, gamma=0.1675, alpha=0.015
0.9901155991108941
% TCN (m^2) @ t=8, gamma=0.1675, alpha=0.015
8.888538088465212E-4
% TCTL (m^2) @ t=9, gamma=0.1675, alpha=0.015
1.0259198252119752
% TCN (m^2) @ t=9, gamma=0.1675, alpha=0.015
9.63008813010139E-4
% TCTL (m^2) @ t=10, gamma=0.1675, alpha=0.015
1.0672415284115044
% TCN (m^2) @ t=10, gamma=0.1675, alpha=0.015
0.001043298390105305
% TCTL (m^2) @ t=11, gamma=0.1675, alpha=0.015
1.114198769598724
% TCN (m^2) @ t=11, gamma=0.1675, alpha=0.015
0.0011302404817673736
% TCTL (m^2) @ t=12, gamma=0.1675, alpha=0.015
1.1669053691715372
% TCN (m^2) @ t=12, gamma=0.1675, alpha=0.015
0.0012243257246474075
% TCTL (m^2) @ t=13, gamma=0.1675, alpha=0.015
1.225536535501834
% TCN (m^2) @ t=13, gamma=0.1675, alpha=0.015
0.0013260441844884594
% TCTL (m^2) @ t=14, gamma=0.1675, alpha=0.015
1.2902042949046497
% TCN (m^2) @ t=14, gamma=0.1675, alpha=0.015
0.0014358945901540852
% TCTL (m^2) @ t=15, gamma=0.1675, alpha=0.015
1.3612075409493751
% TCN (m^2) @ t=15, gamma=0.1675, alpha=0.015
0.0015542720489640945
% TCTL (m^2) @ t=16, gamma=0.1675, alpha=0.015
1.4387546107297005
% TCN (m^2) @ t=16, gamma=0.1675, alpha=0.015
0.0016816262998692552
% TCTL (m^2) @ t=17, gamma=0.1675, alpha=0.015
1.5230696145897318
% TCN (m^2) @ t=17, gamma=0.1675, alpha=0.015
0.0018183036116688526
% TCTL (m^2) @ t=18, gamma=0.1675, alpha=0.015
1.6146084965637049
% TCN (m^2) @ t=18, gamma=0.1675, alpha=0.015
0.0019641455131938507
% TCTL (m^2) @ t=19, gamma=0.1675, alpha=0.015
1.713572253988437
% TCN (m^2) @ t=19, gamma=0.1675, alpha=0.015
0.002119599555894392
% TCTL (m^2) @ t=20, gamma=0.1675, alpha=0.015
1.8204524016428956
% TCN (m^2) @ t=20, gamma=0.1675, alpha=0.015
0.0022840642006050557
% TCTL (m^2) @ t=21, gamma=0.1675, alpha=0.015
1.9356645579295035
% TCN (m^2) @ t=21, gamma=0.1675, alpha=0.015
0.0024572472856635684
% TCTL (m^2) @ t=22, gamma=0.1675, alpha=0.015
2.059597419704284
% TCN (m^2) @ t=22, gamma=0.1675, alpha=0.015
0.0026389993725048732
% TCTL (m^2) @ t=23, gamma=0.1675, alpha=0.015
2.1931222217375743
% TCN (m^2) @ t=23, gamma=0.1675, alpha=0.015
0.0028274396945179112
% TCTL (m^2) @ t=24, gamma=0.1675, alpha=0.015
2.336800091816382
% TCN (m^2) @ t=24, gamma=0.1675, alpha=0.015
0.003021784430208698
% TCTL (m^2) @ t=25, gamma=0.1675, alpha=0.015
2.4912607795874773
% TCN (m^2) @ t=25, gamma=0.1675, alpha=0.015
0.003220675734358805
% TCTL (m^2) @ t=26, gamma=0.1675, alpha=0.015
2.65716565797503
% TCN (m^2) @ t=26, gamma=0.1675, alpha=0.015
0.0034225377298961646
% TCTL (m^2) @ t=27, gamma=0.1675, alpha=0.015
2.835269824782218
% TCN (m^2) @ t=27, gamma=0.1675, alpha=0.015
0.0036255178907802278
% TCTL (m^2) @ t=28, gamma=0.1675, alpha=0.015
3.026165303947582
% TCN (m^2) @ t=28, gamma=0.1675, alpha=0.015
0.0038273389597280804
% TCTL (m^2) @ t=29, gamma=0.1675, alpha=0.015
3.2306072226878086
% TCN (m^2) @ t=29, gamma=0.1675, alpha=0.015
0.004025650897901615
% TCTL (m^2) @ t=30, gamma=0.1675, alpha=0.015
3.4494862629163987
% TCN (m^2) @ t=30, gamma=0.1675, alpha=0.015
0.004217815009407399
% TCTL (m^2) @ t=31, gamma=0.1675, alpha=0.015
3.683807971302745
% TCN (m^2) @ t=31, gamma=0.1675, alpha=0.015
0.0044009496540819894
% TCTL (m^2) @ t=32, gamma=0.1675, alpha=0.015
3.9345134068164835
% TCN (m^2) @ t=32, gamma=0.1675, alpha=0.015
0.004571874899494334
% TCTL (m^2) @ t=33, gamma=0.1675, alpha=0.015
4.20294220817463
% TCN (m^2) @ t=33, gamma=0.1675, alpha=0.015
0.00472676014285807
% TCTL (m^2) @ t=34, gamma=0.1675, alpha=0.015
4.490024816655838
% TCN (m^2) @ t=34, gamma=0.1675, alpha=0.015
0.004862646597945675
% TCTL (m^2) @ t=35, gamma=0.1675, alpha=0.015
4.797056377886123
% TCN (m^2) @ t=35, gamma=0.1675, alpha=0.015
0.004976507696003587
% TCTL (m^2) @ t=36, gamma=0.1675, alpha=0.015
5.125433357012133
% TCN (m^2) @ t=36, gamma=0.1675, alpha=0.015
0.005065400466917306
% TCTL (m^2) @ t=37, gamma=0.1675, alpha=0.015
5.476258991188105
% TCN (m^2) @ t=37, gamma=0.1675, alpha=0.015
0.005126144207137782
% TCTL (m^2) @ t=38, gamma=0.1675, alpha=0.015
5.85147983863497
% TCN (m^2) @ t=38, gamma=0.1675, alpha=0.015
0.005156676515087449
% TCTL (m^2) @ t=39, gamma=0.1675, alpha=0.015
6.25229616968942
% TCN (m^2) @ t=39, gamma=0.1675, alpha=0.015
0.005153888496368246
% TCTL (m^2) @ t=40, gamma=0.1675, alpha=0.015
6.6804446782439
% TCN (m^2) @ t=40, gamma=0.1675, alpha=0.015
0.005116868936735878
% TCTL (m^2) @ t=41, gamma=0.1675, alpha=0.015
7.137920329833522
% TCN (m^2) @ t=41, gamma=0.1675, alpha=0.015
0.005046232241766684
% TCTL (m^2) @ t=42, gamma=0.1675, alpha=0.015
7.626189809258408
% TCN (m^2) @ t=42, gamma=0.1675, alpha=0.015
0.004939472243860944
% TCTL (m^2) @ t=43, gamma=0.1675, alpha=0.015
8.14744636848818
% TCN (m^2) @ t=43, gamma=0.1675, alpha=0.015
0.004799660511446608
% TCTL (m^2) @ t=44, gamma=0.1675, alpha=0.015
8.70338082075127
% TCN (m^2) @ t=44, gamma=0.1675, alpha=0.015
0.0046257057416976746
% TCTL (m^2) @ t=45, gamma=0.1675, alpha=0.015
9.297426300125565
% TCN (m^2) @ t=45, gamma=0.1675, alpha=0.015
0.0044210747991163275
% TCTL (m^2) @ t=46, gamma=0.1675, alpha=0.015
9.932111957906589
% TCN (m^2) @ t=46, gamma=0.1675, alpha=0.015
0.004191182156236973
% TCTL (m^2) @ t=47, gamma=0.1675, alpha=0.015
10.605640266293868
% TCN (m^2) @ t=47, gamma=0.1675, alpha=0.015
0.003932776616214287
% TCTL (m^2) @ t=48, gamma=0.1675, alpha=0.015
11.322093803677248
% TCN (m^2) @ t=48, gamma=0.1675, alpha=0.015
0.0036614725470943904
% TCTL (m^2) @ t=49, gamma=0.1675, alpha=0.015
12.080388246099853
% TCN (m^2) @ t=49, gamma=0.1675, alpha=0.015
0.00337312280662377
% TCTL (m^2) @ t=50, gamma=0.1675, alpha=0.015
12.879884732917217
% TCN (m^2) @ t=50, gamma=0.1675, alpha=0.015
0.0030735346592699266
% TCTL (m^2) @ t=51, gamma=0.1675, alpha=0.015
13.719971414945821
% TCN (m^2) @ t=51, gamma=0.1675, alpha=0.015
0.002777089853879349
% TCTL (m^2) @ t=52, gamma=0.1675, alpha=0.015
14.600991454436688
% TCN (m^2) @ t=52, gamma=0.1675, alpha=0.015
0.0024757222306190886
% TCTL (m^2) @ t=53, gamma=0.1675, alpha=0.015
15.503429428217675
% TCN (m^2) @ t=53, gamma=0.1675, alpha=0.015
0.0021852113052724985
% TCTL (m^2) @ t=54, gamma=0.1675, alpha=0.015
16.43021162283058
% TCN (m^2) @ t=54, gamma=0.1675, alpha=0.015
0.0019031909808163864
% TCTL (m^2) @ t=55, gamma=0.1675, alpha=0.015
17.371733824366878
% TCN (m^2) @ t=55, gamma=0.1675, alpha=0.015
0.0016304082883790202
% TCTL (m^2) @ t=56, gamma=0.1675, alpha=0.015
18.280432385089203
% TCN (m^2) @ t=56, gamma=0.1675, alpha=0.015
0.0013782006236397605
% TCTL (m^2) @ t=57, gamma=0.1675, alpha=0.015
19.15515955726584
% TCN (m^2) @ t=57, gamma=0.1675, alpha=0.015
0.0011468415667547525
% TCTL (m^2) @ t=58, gamma=0.1675, alpha=0.015
19.8928099100632
% TCN (m^2) @ t=58, gamma=0.1675, alpha=0.015
9.378580985103918E-4
% TCTL (m^2) @ t=59, gamma=0.1675, alpha=0.015
20.434347955065086
% TCN (m^2) @ t=59, gamma=0.1675, alpha=0.015
7.539221825784265E-4
% TCTL (m^2) @ t=60, gamma=0.1675, alpha=0.015
20.728544355671012
% TCN (m^2) @ t=60, gamma=0.1675, alpha=0.015
5.968256372524178E-4
% TCTL (m^2) @ t=61, gamma=0.1675, alpha=0.015
20.646447058324792
% TCN (m^2) @ t=61, gamma=0.1675, alpha=0.015
4.6177012546741176E-4
% TCTL (m^2) @ t=62, gamma=0.1675, alpha=0.015
20.136192118973245
% TCN (m^2) @ t=62, gamma=0.1675, alpha=0.015
3.515450389567539E-4
% TCTL (m^2) @ t=63, gamma=0.1675, alpha=0.015
19.35021349531521
% TCN (m^2) @ t=63, gamma=0.1675, alpha=0.015
2.6211637008379283E-4
% TCTL (m^2) @ t=64, gamma=0.1675, alpha=0.015
18.24025544654905
% TCN (m^2) @ t=64, gamma=0.1675, alpha=0.015
1.9337863058323083E-4
% TCTL (m^2) @ t=65, gamma=0.1675, alpha=0.015
16.937164897195352
% TCN (m^2) @ t=65, gamma=0.1675, alpha=0.015
1.4146663763003152E-4
% TCTL (m^2) @ t=66, gamma=0.1675, alpha=0.015
15.562211620927052
% TCN (m^2) @ t=66, gamma=0.1675, alpha=0.015
1.0272878431169987E-4
% TCTL (m^2) @ t=67, gamma=0.1675, alpha=0.015
14.16725690630761
% TCN (m^2) @ t=67, gamma=0.1675, alpha=0.015
7.488967633700526E-5
% TCTL (m^2) @ t=68, gamma=0.1675, alpha=0.015
12.836671382663134
% TCN (m^2) @ t=68, gamma=0.1675, alpha=0.015
5.4977557258878554E-5
% TCTL (m^2) @ t=69, gamma=0.1675, alpha=0.015
11.598106650601881
% TCN (m^2) @ t=69, gamma=0.1675, alpha=0.015
4.0857035391757984E-5
% TCTL (m^2) @ t=70, gamma=0.1675, alpha=0.015
10.481881433498113
% TCN (m^2) @ t=70, gamma=0.1675, alpha=0.015
3.0318020998208492E-5
% TCTL (m^2) @ t=71, gamma=0.1675, alpha=0.015
9.471585547994067
% TCN (m^2) @ t=71, gamma=0.1675, alpha=0.015
2.295991791941697E-5
% TCTL (m^2) @ t=72, gamma=0.1675, alpha=0.015
8.573264691470383
% TCN (m^2) @ t=72, gamma=0.1675, alpha=0.015
1.7575734636538627E-5
% TCTL (m^2) @ t=73, gamma=0.1675, alpha=0.015
7.760166036782864
% TCN (m^2) @ t=73, gamma=0.1675, alpha=0.015
1.3991215556808706E-5
% TCTL (m^2) @ t=74, gamma=0.1675, alpha=0.015
7.023774817062657
% TCN (m^2) @ t=74, gamma=0.1675, alpha=0.015
1.1118489323617244E-5
% TCTL (m^2) @ t=75, gamma=0.1675, alpha=0.015
6.356100347767876
% TCN (m^2) @ t=75, gamma=0.1675, alpha=0.015
8.80516871741891E-6
% TCTL (m^2) @ t=76, gamma=0.1675, alpha=0.015
5.749947188806125
% TCN (m^2) @ t=76, gamma=0.1675, alpha=0.015
7.092383301171117E-6
% TCTL (m^2) @ t=77, gamma=0.1675, alpha=0.015
5.200719210000594
% TCN (m^2) @ t=77, gamma=0.1675, alpha=0.015
5.869440512794069E-6
% TCTL (m^2) @ t=78, gamma=0.1675, alpha=0.015
4.701640052809353
% TCN (m^2) @ t=78, gamma=0.1675, alpha=0.015
4.954904616024878E-6
% TCTL (m^2) @ t=79, gamma=0.1675, alpha=0.015
4.250546001641678
% TCN (m^2) @ t=79, gamma=0.1675, alpha=0.015
4.311781178114006E-6
% TCTL (m^2) @ t=80, gamma=0.1675, alpha=0.015
3.842933721382182
% TCN (m^2) @ t=80, gamma=0.1675, alpha=0.015
3.862513534025241E-6
% TCTL (m^2) @ t=81, gamma=0.1675, alpha=0.015
3.47414127378953
% TCN (m^2) @ t=81, gamma=0.1675, alpha=0.015
3.5653285848046046E-6
% TCTL (m^2) @ t=82, gamma=0.1675, alpha=0.015
3.1420651049351465
% TCN (m^2) @ t=82, gamma=0.1675, alpha=0.015
3.399491135520389E-6
% TCTL (m^2) @ t=83, gamma=0.1675, alpha=0.015
2.84123267885807
% TCN (m^2) @ t=83, gamma=0.1675, alpha=0.015
3.314573208952926E-6
% TCTL (m^2) @ t=84, gamma=0.1675, alpha=0.015
2.5693093207066022
% TCN (m^2) @ t=84, gamma=0.1675, alpha=0.015
3.3016926336206968E-6
% TCTL (m^2) @ t=85, gamma=0.1675, alpha=0.015
2.3242239830921125
% TCN (m^2) @ t=85, gamma=0.1675, alpha=0.015
3.348800449044711E-6
% TCTL (m^2) @ t=86, gamma=0.1675, alpha=0.015
2.1025772519101644
% TCN (m^2) @ t=86, gamma=0.1675, alpha=0.015
3.4446582815981844E-6
% TCTL (m^2) @ t=87, gamma=0.1675, alpha=0.015
1.9025098508028455
% TCN (m^2) @ t=87, gamma=0.1675, alpha=0.015
3.589602057142697E-6
% TCTL (m^2) @ t=88, gamma=0.1675, alpha=0.015
1.7215959388490472
% TCN (m^2) @ t=88, gamma=0.1675, alpha=0.015
3.7888787430303923E-6
% TCTL (m^2) @ t=89, gamma=0.1675, alpha=0.015
1.5580783430937764
% TCN (m^2) @ t=89, gamma=0.1675, alpha=0.015
4.054139109229788E-6
% TCTL (m^2) @ t=90, gamma=0.1675, alpha=0.015
1.410053372486932
% TCN (m^2) @ t=90, gamma=0.1675, alpha=0.015
4.393807764474423E-6
% TCTL (m^2) @ t=91, gamma=0.1675, alpha=0.015
1.2760964419616259
% TCN (m^2) @ t=91, gamma=0.1675, alpha=0.015
4.822391064396661E-6
% TCTL (m^2) @ t=92, gamma=0.1675, alpha=0.015
1.1551245816074136
% TCN (m^2) @ t=92, gamma=0.1675, alpha=0.015
5.358303537112793E-6
% TCTL (m^2) @ t=93, gamma=0.1675, alpha=0.015
1.0458937182097692
% TCN (m^2) @ t=93, gamma=0.1675, alpha=0.015
6.018129251803441E-6
% TCTL (m^2) @ t=94, gamma=0.1675, alpha=0.015
0.94714030062437
% TCN (m^2) @ t=94, gamma=0.1675, alpha=0.015
6.818232766707767E-6
% TCTL (m^2) @ t=95, gamma=0.1675, alpha=0.015
0.8579429019511533
% TCN (m^2) @ t=95, gamma=0.1675, alpha=0.015
7.795428289042922E-6
% TCTL (m^2) @ t=96, gamma=0.1675, alpha=0.015
0.7771655620522265
% TCN (m^2) @ t=96, gamma=0.1675, alpha=0.015
8.972906529385976E-6
% TCTL (m^2) @ t=97, gamma=0.1675, alpha=0.015
0.703632277836044
% TCN (m^2) @ t=97, gamma=0.1675, alpha=0.015
1.0371315352040042E-5
% TCTL (m^2) @ t=98, gamma=0.1675, alpha=0.015
0.6375459106592356
% TCN (m^2) @ t=98, gamma=0.1675, alpha=0.015
1.208855196894953E-5
% TCTL (m^2) @ t=99, gamma=0.1675, alpha=0.015
0.5776366931575264
% TCN (m^2) @ t=99, gamma=0.1675, alpha=0.015
1.4140397503911089E-5
% TCTL (m^2) @ t=100, gamma=0.1675, alpha=0.015
0.5231926492192839
% TCN (m^2) @ t=100, gamma=0.1675, alpha=0.015
1.6582911042682258E-5
% TCTL (m^2) @ t=101, gamma=0.1675, alpha=0.015
0.4741826152796139
% TCN (m^2) @ t=101, gamma=0.1675, alpha=0.015
1.9563903323752593E-5
% TCTL (m^2) @ t=102, gamma=0.1675, alpha=0.015
0.4297183164299813
% TCN (m^2) @ t=102, gamma=0.1675, alpha=0.015
2.3115420499342708E-5
% TCTL (m^2) @ t=103, gamma=0.1675, alpha=0.015
0.389382530749972
% TCN (m^2) @ t=103, gamma=0.1675, alpha=0.015
2.736178637878884E-5
% TCTL (m^2) @ t=104, gamma=0.1675, alpha=0.015
0.3530656692206059
% TCN (m^2) @ t=104, gamma=0.1675, alpha=0.015
3.251382378632959E-5
% TCTL (m^2) @ t=105, gamma=0.1675, alpha=0.015
0.3201332567795181
% TCN (m^2) @ t=105, gamma=0.1675, alpha=0.015
3.863477014335163E-5
% TCTL (m^2) @ t=106, gamma=0.1675, alpha=0.015
0.29037848234918173
% TCN (m^2) @ t=106, gamma=0.1675, alpha=0.015
4.59834652836761E-5
% TCTL (m^2) @ t=107, gamma=0.1675, alpha=0.015
0.2636289599567935
% TCN (m^2) @ t=107, gamma=0.1675, alpha=0.015
5.483903915743669E-5
% TCTL (m^2) @ t=108, gamma=0.1675, alpha=0.015
0.23944782842334117
% TCN (m^2) @ t=108, gamma=0.1675, alpha=0.015
6.532474033872396E-5
% TCTL (m^2) @ t=109, gamma=0.1675, alpha=0.015
0.21771421036962169
% TCN (m^2) @ t=109, gamma=0.1675, alpha=0.015
7.784896752601885E-5
% TCTL (m^2) @ t=110, gamma=0.1675, alpha=0.015
0.19826464198709842
% TCN (m^2) @ t=110, gamma=0.1675, alpha=0.015
9.27747307105923E-5
% TCTL (m^2) @ t=111, gamma=0.1675, alpha=0.015
0.18090656321845067
% TCN (m^2) @ t=111, gamma=0.1675, alpha=0.015
1.104340290397047E-4
% TCTL (m^2) @ t=112, gamma=0.1675, alpha=0.015
0.1655505465433402
% TCN (m^2) @ t=112, gamma=0.1675, alpha=0.015
1.315218936631681E-4
% TCTL (m^2) @ t=113, gamma=0.1675, alpha=0.015
0.15211273504070885
% TCN (m^2) @ t=113, gamma=0.1675, alpha=0.015
1.5656356282400282E-4
% TCTL (m^2) @ t=114, gamma=0.1675, alpha=0.015
0.14054305955433785
% TCN (m^2) @ t=114, gamma=0.1675, alpha=0.015
1.8621839811481267E-4
% TCTL (m^2) @ t=115, gamma=0.1675, alpha=0.015
0.1307505326450953
% TCN (m^2) @ t=115, gamma=0.1675, alpha=0.015
2.2139857626256467E-4
% TCTL (m^2) @ t=116, gamma=0.1675, alpha=0.015
0.1227434946398577
% TCN (m^2) @ t=116, gamma=0.1675, alpha=0.015
2.629317068552001E-4
% TCTL (m^2) @ t=117, gamma=0.1675, alpha=0.015
0.11649734416552228
% TCN (m^2) @ t=117, gamma=0.1675, alpha=0.015
3.1188173782377096E-4
% TCTL (m^2) @ t=118, gamma=0.1675, alpha=0.015
0.11190996495885404
% TCN (m^2) @ t=118, gamma=0.1675, alpha=0.015
3.696752004490677E-4
% TCTL (m^2) @ t=119, gamma=0.1675, alpha=0.015
0.10900191740491977
% TCN (m^2) @ t=119, gamma=0.1675, alpha=0.015
4.3756752690131363E-4
% TCTL (m^2) @ t=120, gamma=0.1675, alpha=0.015
0.1076964325094383
% TCN (m^2) @ t=120, gamma=0.1675, alpha=0.015
5.172229153158092E-4
% TCTL (m^2) @ t=121, gamma=0.1675, alpha=0.015
0.10786588977285211
% TCN (m^2) @ t=121, gamma=0.1675, alpha=0.015
6.105913481634929E-4
% TCTL (m^2) @ t=122, gamma=0.1675, alpha=0.015
0.10946599892988719
% TCN (m^2) @ t=122, gamma=0.1675, alpha=0.015
7.195634354628994E-4
% TCTL (m^2) @ t=123, gamma=0.1675, alpha=0.015
0.1123767941628944
% TCN (m^2) @ t=123, gamma=0.1675, alpha=0.015
8.466868832374896E-4
% TCTL (m^2) @ t=124, gamma=0.1675, alpha=0.015
0.11647314537876319
% TCN (m^2) @ t=124, gamma=0.1675, alpha=0.015
9.94659107879208E-4
% TCTL (m^2) @ t=125, gamma=0.1675, alpha=0.015
0.1216319177915964
% TCN (m^2) @ t=125, gamma=0.1675, alpha=0.015
0.0011662465354678139
% TCTL (m^2) @ t=126, gamma=0.1675, alpha=0.015
0.12781661888937185
% TCN (m^2) @ t=126, gamma=0.1675, alpha=0.015
0.0013651026205821625
% TCTL (m^2) @ t=127, gamma=0.1675, alpha=0.015
0.1349132547635055
% TCN (m^2) @ t=127, gamma=0.1675, alpha=0.015
0.0015947797764128565
% TCTL (m^2) @ t=128, gamma=0.1675, alpha=0.015
0.14283284192136014
% TCN (m^2) @ t=128, gamma=0.1675, alpha=0.015
0.0018593334401342644
% TCTL (m^2) @ t=129, gamma=0.1675, alpha=0.015
0.15170747062099288
% TCN (m^2) @ t=129, gamma=0.1675, alpha=0.015
0.002164747815416722
% TCTL (m^2) @ t=130, gamma=0.1675, alpha=0.015
0.1614176926345947
% TCN (m^2) @ t=130, gamma=0.1675, alpha=0.015
0.002514462041706873
% TCTL (m^2) @ t=131, gamma=0.1675, alpha=0.015
0.17197233225490222
% TCN (m^2) @ t=131, gamma=0.1675, alpha=0.015
0.002913946915212582
% TCTL (m^2) @ t=132, gamma=0.1675, alpha=0.015
0.18352038337895968
% TCN (m^2) @ t=132, gamma=0.1675, alpha=0.015
0.0033720813271508818
% TCTL (m^2) @ t=133, gamma=0.1675, alpha=0.015
0.1960088411219174
% TCN (m^2) @ t=133, gamma=0.1675, alpha=0.015
0.003892832754143438
% TCTL (m^2) @ t=134, gamma=0.1675, alpha=0.015
0.2094885584280957
% TCN (m^2) @ t=134, gamma=0.1675, alpha=0.015
0.004483782919003837
% TCTL (m^2) @ t=135, gamma=0.1675, alpha=0.015
0.22403383453996029
% TCN (m^2) @ t=135, gamma=0.1675, alpha=0.015
0.0051537864657994
% TCTL (m^2) @ t=136, gamma=0.1675, alpha=0.015
0.23965909411247321
% TCN (m^2) @ t=136, gamma=0.1675, alpha=0.015
0.005908447391756562
% TCTL (m^2) @ t=137, gamma=0.1675, alpha=0.015
0.25645873711687095
% TCN (m^2) @ t=137, gamma=0.1675, alpha=0.015
0.006758461690310215
% TCTL (m^2) @ t=138, gamma=0.1675, alpha=0.015
0.27450969623171073
% TCN (m^2) @ t=138, gamma=0.1675, alpha=0.015
0.007713349250908295
% TCTL (m^2) @ t=139, gamma=0.1675, alpha=0.015
0.2938556135551723
% TCN (m^2) @ t=139, gamma=0.1675, alpha=0.015
0.008780388448813816
% TCTL (m^2) @ t=140, gamma=0.1675, alpha=0.015
0.3145965863321216
% TCN (m^2) @ t=140, gamma=0.1675, alpha=0.015
0.009972381423518285
% TCTL (m^2) @ t=141, gamma=0.1675, alpha=0.015
0.3367991487731217
% TCN (m^2) @ t=141, gamma=0.1675, alpha=0.015
0.011298423420369404
% TCTL (m^2) @ t=142, gamma=0.1675, alpha=0.015
0.3605328216102947
% TCN (m^2) @ t=142, gamma=0.1675, alpha=0.015
0.012767862404232326
% TCTL (m^2) @ t=143, gamma=0.1675, alpha=0.015
0.3859135162881244
% TCN (m^2) @ t=143, gamma=0.1675, alpha=0.015
0.014393031253258694
% TCTL (m^2) @ t=144, gamma=0.1675, alpha=0.015
0.41302293560250536
% TCN (m^2) @ t=144, gamma=0.1675, alpha=0.015
0.01618420035627876
% TCTL (m^2) @ t=145, gamma=0.1675, alpha=0.015
0.4419588651225219
% TCN (m^2) @ t=145, gamma=0.1675, alpha=0.015
0.018152609755977246
% TCTL (m^2) @ t=146, gamma=0.1675, alpha=0.015
0.4728236044047218
% TCN (m^2) @ t=146, gamma=0.1675, alpha=0.015
0.02030977164992756
% TCTL (m^2) @ t=147, gamma=0.1675, alpha=0.015
0.5057239669931193
% TCN (m^2) @ t=147, gamma=0.1675, alpha=0.015
0.02266747039059162
% TCTL (m^2) @ t=148, gamma=0.1675, alpha=0.015
0.540787778819017
% TCN (m^2) @ t=148, gamma=0.1675, alpha=0.015
0.025235145155533496
% TCTL (m^2) @ t=149, gamma=0.1675, alpha=0.015
0.5781571455733651
% TCN (m^2) @ t=149, gamma=0.1675, alpha=0.015
0.028020958021114394
% TCTL (m^2) @ t=150, gamma=0.1675, alpha=0.015
0.6179486818001072
% TCN (m^2) @ t=150, gamma=0.1675, alpha=0.015
0.03103810327610866
% TCTL (m^2) @ t=151, gamma=0.1675, alpha=0.015
0.6602990539418782
% TCN (m^2) @ t=151, gamma=0.1675, alpha=0.015
0.034297582407678814
% TCTL (m^2) @ t=152, gamma=0.1675, alpha=0.015
0.7053508703978105
% TCN (m^2) @ t=152, gamma=0.1675, alpha=0.015
0.03781044252282273
% TCTL (m^2) @ t=153, gamma=0.1675, alpha=0.015
0.7532526815235411
% TCN (m^2) @ t=153, gamma=0.1675, alpha=0.015
0.04158777634837432
% TCTL (m^2) @ t=154, gamma=0.1675, alpha=0.015
0.8040656523698712
% TCN (m^2) @ t=154, gamma=0.1675, alpha=0.015
0.04561293830515486
% TCTL (m^2) @ t=155, gamma=0.1675, alpha=0.015
0.857954504660724
% TCN (m^2) @ t=155, gamma=0.1675, alpha=0.015
0.04989838875349373
% TCTL (m^2) @ t=156, gamma=0.1675, alpha=0.015
0.9150786690795261
% TCN (m^2) @ t=156, gamma=0.1675, alpha=0.015
0.05445328956218736
% TCTL (m^2) @ t=157, gamma=0.1675, alpha=0.015
0.9755868365435229
% TCN (m^2) @ t=157, gamma=0.1675, alpha=0.015
0.05928188199950185
% TCTL (m^2) @ t=158, gamma=0.1675, alpha=0.015
1.0396312885874865
% TCN (m^2) @ t=158, gamma=0.1675, alpha=0.015
0.06438775294984678
% TCTL (m^2) @ t=159, gamma=0.1675, alpha=0.015
1.107725375193265
% TCN (m^2) @ t=159, gamma=0.1675, alpha=0.015
0.06975819345302596
% TCTL (m^2) @ t=160, gamma=0.1675, alpha=0.015
1.1817616670146092
% TCN (m^2) @ t=160, gamma=0.1675, alpha=0.015
0.07531964940147101
% TCTL (m^2) @ t=161, gamma=0.1675, alpha=0.015
1.2612638951782265
% TCN (m^2) @ t=161, gamma=0.1675, alpha=0.015
0.08110171810629314
% TCTL (m^2) @ t=162, gamma=0.1675, alpha=0.015
1.3467671820407812
% TCN (m^2) @ t=162, gamma=0.1675, alpha=0.015
0.08708924612731067
% TCTL (m^2) @ t=163, gamma=0.1675, alpha=0.015
1.4388466034807716
% TCN (m^2) @ t=163, gamma=0.1675, alpha=0.015
0.09326483457974363
% TCTL (m^2) @ t=164, gamma=0.1675, alpha=0.015
1.538117188898535
% TCN (m^2) @ t=164, gamma=0.1675, alpha=0.015
0.09960883913421464
% TCTL (m^2) @ t=165, gamma=0.1675, alpha=0.015
1.6444489768293162
% TCN (m^2) @ t=165, gamma=0.1675, alpha=0.015
0.10605867596223513
% TCTL (m^2) @ t=166, gamma=0.1675, alpha=0.015
1.7580760635565449
% TCN (m^2) @ t=166, gamma=0.1675, alpha=0.015
0.11256631840154743
% TCTL (m^2) @ t=167, gamma=0.1675, alpha=0.015
1.8798905242026422
% TCN (m^2) @ t=167, gamma=0.1675, alpha=0.015
0.11911353477562901
% TCTL (m^2) @ t=168, gamma=0.1675, alpha=0.015
2.010405064939205
% TCN (m^2) @ t=168, gamma=0.1675, alpha=0.015
0.12565810893083174
% TCTL (m^2) @ t=169, gamma=0.1675, alpha=0.015
2.1501474183048144
% TCN (m^2) @ t=169, gamma=0.1675, alpha=0.015
0.13215428696461784
% TCTL (m^2) @ t=170, gamma=0.1675, alpha=0.015
2.299660343205037
% TCN (m^2) @ t=170, gamma=0.1675, alpha=0.015
0.13855277722556444
% TCTL (m^2) @ t=171, gamma=0.1675, alpha=0.015
2.4600843934062198
% TCN (m^2) @ t=171, gamma=0.1675, alpha=0.015
0.1446989323733007
% TCTL (m^2) @ t=172, gamma=0.1675, alpha=0.015
2.631799133909734
% TCN (m^2) @ t=172, gamma=0.1675, alpha=0.015
0.150570148193366
% TCTL (m^2) @ t=173, gamma=0.1675, alpha=0.015
2.8154797675940864
% TCN (m^2) @ t=173, gamma=0.1675, alpha=0.015
0.15609125590263143
% TCTL (m^2) @ t=174, gamma=0.1675, alpha=0.015
3.0118384004990064
% TCN (m^2) @ t=174, gamma=0.1675, alpha=0.015
0.16117972678214149
% TCTL (m^2) @ t=175, gamma=0.1675, alpha=0.015
3.2216121882042357
% TCN (m^2) @ t=175, gamma=0.1675, alpha=0.015
0.16574774317324714
% TCTL (m^2) @ t=176, gamma=0.1675, alpha=0.015
3.4464109014264475
% TCN (m^2) @ t=176, gamma=0.1675, alpha=0.015
0.16973299550004844
% TCTL (m^2) @ t=177, gamma=0.1675, alpha=0.015
3.688450155035372
% TCN (m^2) @ t=177, gamma=0.1675, alpha=0.015
0.17311973516008966
% TCTL (m^2) @ t=178, gamma=0.1675, alpha=0.015
3.9474213614867466
% TCN (m^2) @ t=178, gamma=0.1675, alpha=0.015
0.17580318234603615
% TCTL (m^2) @ t=179, gamma=0.1675, alpha=0.015
4.224218509187529
% TCN (m^2) @ t=179, gamma=0.1675, alpha=0.015
0.17771349114067408
% TCTL (m^2) @ t=180, gamma=0.1675, alpha=0.015
4.519735586544613
% TCN (m^2) @ t=180, gamma=0.1675, alpha=0.015
0.17878081562678802
% TCTL (m^2) @ t=181, gamma=0.1675, alpha=0.015
4.834866581964964
% TCN (m^2) @ t=181, gamma=0.1675, alpha=0.015
0.1789353098871645
% TCTL (m^2) @ t=182, gamma=0.1675, alpha=0.015
5.173839684829917
% TCN (m^2) @ t=182, gamma=0.1675, alpha=0.015
0.17822511051453305
% TCTL (m^2) @ t=183, gamma=0.1675, alpha=0.015
5.537387970379585
% TCN (m^2) @ t=183, gamma=0.1675, alpha=0.015
0.17657467759199263
% TCTL (m^2) @ t=184, gamma=0.1675, alpha=0.015
5.925850151872426
% TCN (m^2) @ t=184, gamma=0.1675, alpha=0.015
0.17389451649001852
% TCTL (m^2) @ t=185, gamma=0.1675, alpha=0.015
6.340476126618198
% TCN (m^2) @ t=185, gamma=0.1675, alpha=0.015
0.17012737532096756
% TCTL (m^2) @ t=186, gamma=0.1675, alpha=0.015
6.782515791926583
% TCN (m^2) @ t=186, gamma=0.1675, alpha=0.015
0.1652160021971923
% TCTL (m^2) @ t=187, gamma=0.1675, alpha=0.015
7.2571694683584935
% TCN (m^2) @ t=187, gamma=0.1675, alpha=0.015
0.1595317196342131
% TCTL (m^2) @ t=188, gamma=0.1675, alpha=0.015
7.76627165778178
% TCN (m^2) @ t=188, gamma=0.1675, alpha=0.015
0.15308069845472583
% TCTL (m^2) @ t=189, gamma=0.1675, alpha=0.015
8.310224809338472
% TCN (m^2) @ t=189, gamma=0.1675, alpha=0.015
0.14571374862431752
% TCTL (m^2) @ t=190, gamma=0.1675, alpha=0.015
8.890811256138875
% TCN (m^2) @ t=190, gamma=0.1675, alpha=0.015
0.1374313812698182
% TCTL (m^2) @ t=191, gamma=0.1675, alpha=0.015
9.510589539313546
% TCN (m^2) @ t=191, gamma=0.1675, alpha=0.015
0.12833301354002868
% TCTL (m^2) @ t=192, gamma=0.1675, alpha=0.015
10.177851488173282
% TCN (m^2) @ t=192, gamma=0.1675, alpha=0.015
0.11924860995234413
% TCTL (m^2) @ t=193, gamma=0.1675, alpha=0.015
10.891580737365526
% TCN (m^2) @ t=193, gamma=0.1675, alpha=0.015
0.1098220657208364
% TCTL (m^2) @ t=194, gamma=0.1675, alpha=0.015
11.65432641437559
% TCN (m^2) @ t=194, gamma=0.1675, alpha=0.015
0.10015159848826619
% TCTL (m^2) @ t=195, gamma=0.1675, alpha=0.015
12.468637646688698
% TCN (m^2) @ t=195, gamma=0.1675, alpha=0.015
0.09033542589739436
% TCTL (m^2) @ t=196, gamma=0.1675, alpha=0.015
13.341573192384061
% TCN (m^2) @ t=196, gamma=0.1675, alpha=0.015
0.08056163764248045
% TCTL (m^2) @ t=197, gamma=0.1675, alpha=0.015
14.278290594662863
% TCN (m^2) @ t=197, gamma=0.1675, alpha=0.015
0.07098043426525177
% TCTL (m^2) @ t=198, gamma=0.1675, alpha=0.015
15.279945496798046
% TCN (m^2) @ t=198, gamma=0.1675, alpha=0.015
0.06166226277797609
% TCTL (m^2) @ t=199, gamma=0.1675, alpha=0.015
16.350020403151117
% TCN (m^2) @ t=199, gamma=0.1675, alpha=0.015
0.05272394201323252
% TCTL (m^2) @ t=200, gamma=0.1675, alpha=0.015
17.49224681091044
% TCN (m^2) @ t=200, gamma=0.1675, alpha=0.015
0.044285589478036354
% TCTL (m^2) @ t=0, gamma=0.1675, alpha=0.0175
0.8999950985350824
% TCN (m^2) @ t=0, gamma=0.1675, alpha=0.0175
4.6384710336294134E-4
% TCTL (m^2) @ t=1, gamma=0.1675, alpha=0.0175
0.8930297972745338
% TCN (m^2) @ t=1, gamma=0.1675, alpha=0.0175
5.212192724105634E-4
% TCTL (m^2) @ t=2, gamma=0.1675, alpha=0.0175
0.8946005259365044
% TCN (m^2) @ t=2, gamma=0.1675, alpha=0.0175
5.846580997594619E-4
% TCTL (m^2) @ t=3, gamma=0.1675, alpha=0.0175
0.903190270155146
% TCN (m^2) @ t=3, gamma=0.1675, alpha=0.0175
6.538592051390998E-4
% TCTL (m^2) @ t=4, gamma=0.1675, alpha=0.0175
0.9192237273285875
% TCN (m^2) @ t=4, gamma=0.1675, alpha=0.0175
7.301893438580417E-4
% TCTL (m^2) @ t=5, gamma=0.1675, alpha=0.0175
0.9423484651806338
% TCN (m^2) @ t=5, gamma=0.1675, alpha=0.0175
8.14164064337366E-4
% TCTL (m^2) @ t=6, gamma=0.1675, alpha=0.0175
0.9723778479045385
% TCN (m^2) @ t=6, gamma=0.1675, alpha=0.0175
9.063760984246829E-4
% TCTL (m^2) @ t=7, gamma=0.1675, alpha=0.0175
1.0091216679978199
% TCN (m^2) @ t=7, gamma=0.1675, alpha=0.0175
0.0010076392846584687
% TCTL (m^2) @ t=8, gamma=0.1675, alpha=0.0175
1.0524433173055465
% TCN (m^2) @ t=8, gamma=0.1675, alpha=0.0175
0.0011188343832551346
% TCTL (m^2) @ t=9, gamma=0.1675, alpha=0.0175
1.1023028151643306
% TCN (m^2) @ t=9, gamma=0.1675, alpha=0.0175
0.0012410466423007243
% TCTL (m^2) @ t=10, gamma=0.1675, alpha=0.0175
1.158648592209798
% TCN (m^2) @ t=10, gamma=0.1675, alpha=0.0175
0.0013751200127520308
% TCTL (m^2) @ t=11, gamma=0.1675, alpha=0.0175
1.2215260672301431
% TCN (m^2) @ t=11, gamma=0.1675, alpha=0.0175
0.0015220967202400299
% TCTL (m^2) @ t=12, gamma=0.1675, alpha=0.0175
1.2910222393323005
% TCN (m^2) @ t=12, gamma=0.1675, alpha=0.0175
0.0016830649252247204
% TCTL (m^2) @ t=13, gamma=0.1675, alpha=0.0175
1.3671338865479719
% TCN (m^2) @ t=13, gamma=0.1675, alpha=0.0175
0.001859009515611192
% TCTL (m^2) @ t=14, gamma=0.1675, alpha=0.0175
1.450322054577781
% TCN (m^2) @ t=14, gamma=0.1675, alpha=0.0175
0.002051323706368466
% TCTL (m^2) @ t=15, gamma=0.1675, alpha=0.0175
1.5406036237594969
% TCN (m^2) @ t=15, gamma=0.1675, alpha=0.0175
0.0022610190564398233
% TCTL (m^2) @ t=16, gamma=0.1675, alpha=0.0175
1.6383201479108485
% TCN (m^2) @ t=16, gamma=0.1675, alpha=0.0175
0.0024889784842704555
% TCTL (m^2) @ t=17, gamma=0.1675, alpha=0.0175
1.7439223674470594
% TCN (m^2) @ t=17, gamma=0.1675, alpha=0.0175
0.002735950562945128
% TCTL (m^2) @ t=18, gamma=0.1675, alpha=0.0175
1.8575898289570096
% TCN (m^2) @ t=18, gamma=0.1675, alpha=0.0175
0.0030030175478245277
% TCTL (m^2) @ t=19, gamma=0.1675, alpha=0.0175
1.9800057288639077
% TCN (m^2) @ t=19, gamma=0.1675, alpha=0.0175
0.0032889182471504495
% TCTL (m^2) @ t=20, gamma=0.1675, alpha=0.0175
2.1114491527205423
% TCN (m^2) @ t=20, gamma=0.1675, alpha=0.0175
0.003594607171414573
% TCTL (m^2) @ t=21, gamma=0.1675, alpha=0.0175
2.25255386321155