% Model:              MODEL_SC_3_0.15_II.mph
% Version:            COMSOL 5.6.0.401
% Date:               May 21 2022, 13:13
% Dimension:          0
% Nodes:              12462
% Expressions:        12462
% Description:        , 
% TCTL (m^2) @ t=0, gamma=0.145, alpha=0.015
0.8999909206691141
% TCN (m^2) @ t=0, gamma=0.145, alpha=0.015
4.638411033079593E-4
% TCTL (m^2) @ t=1, gamma=0.145, alpha=0.015
0.8808935695613856
% TCN (m^2) @ t=1, gamma=0.145, alpha=0.015
5.04957539613515E-4
% TCTL (m^2) @ t=2, gamma=0.145, alpha=0.015
0.867738969990872
% TCN (m^2) @ t=2, gamma=0.145, alpha=0.015
5.501571738921957E-4
% TCTL (m^2) @ t=3, gamma=0.145, alpha=0.015
0.8590950439537078
% TCN (m^2) @ t=3, gamma=0.145, alpha=0.015
5.990902370507888E-4
% TCTL (m^2) @ t=4, gamma=0.145, alpha=0.015
0.8552084166221892
% TCN (m^2) @ t=4, gamma=0.145, alpha=0.015
6.527974989707704E-4
% TCTL (m^2) @ t=5, gamma=0.145, alpha=0.015
0.8559928781030475
% TCN (m^2) @ t=5, gamma=0.145, alpha=0.015
7.118542987006333E-4
% TCTL (m^2) @ t=6, gamma=0.145, alpha=0.015
0.8611555683910441
% TCN (m^2) @ t=6, gamma=0.145, alpha=0.015
7.766548410123736E-4
% TCTL (m^2) @ t=7, gamma=0.145, alpha=0.015
0.8704774878883628
% TCN (m^2) @ t=7, gamma=0.145, alpha=0.015
8.478874850266712E-4
% TCTL (m^2) @ t=8, gamma=0.145, alpha=0.015
0.8838215651094197
% TCN (m^2) @ t=8, gamma=0.145, alpha=0.015
9.25979977261179E-4
% TCTL (m^2) @ t=9, gamma=0.145, alpha=0.015
0.9009585314987864
% TCN (m^2) @ t=9, gamma=0.145, alpha=0.015
0.0010116918119868006
% TCTL (m^2) @ t=10, gamma=0.145, alpha=0.015
0.921717906176369
% TCN (m^2) @ t=10, gamma=0.145, alpha=0.015
0.0011056102005616896
% TCTL (m^2) @ t=11, gamma=0.145, alpha=0.015
0.945946369498343
% TCN (m^2) @ t=11, gamma=0.145, alpha=0.015
0.0012084339451075444
% TCTL (m^2) @ t=12, gamma=0.145, alpha=0.015
0.9735500584894476
% TCN (m^2) @ t=12, gamma=0.145, alpha=0.015
0.0013210575029756607
% TCTL (m^2) @ t=13, gamma=0.145, alpha=0.015
1.0043913024262145
% TCN (m^2) @ t=13, gamma=0.145, alpha=0.015
0.0014442325088135787
% TCTL (m^2) @ t=14, gamma=0.145, alpha=0.015
1.0383817792809866
% TCN (m^2) @ t=14, gamma=0.145, alpha=0.015
0.001578808082185312
% TCTL (m^2) @ t=15, gamma=0.145, alpha=0.015
1.075450596563151
% TCN (m^2) @ t=15, gamma=0.145, alpha=0.015
0.0017256573239566556
% TCTL (m^2) @ t=16, gamma=0.145, alpha=0.015
1.1154754825193538
% TCN (m^2) @ t=16, gamma=0.145, alpha=0.015
0.0018855826422606381
% TCTL (m^2) @ t=17, gamma=0.145, alpha=0.015
1.158472305766053
% TCN (m^2) @ t=17, gamma=0.145, alpha=0.015
0.002059476335699984
% TCTL (m^2) @ t=18, gamma=0.145, alpha=0.015
1.2044445493216422
% TCN (m^2) @ t=18, gamma=0.145, alpha=0.015
0.0022482241447519978
% TCTL (m^2) @ t=19, gamma=0.145, alpha=0.015
1.2532951006143267
% TCN (m^2) @ t=19, gamma=0.145, alpha=0.015
0.002452658544924648
% TCTL (m^2) @ t=20, gamma=0.145, alpha=0.015
1.3051185982439601
% TCN (m^2) @ t=20, gamma=0.145, alpha=0.015
0.0026733695485268555
% TCTL (m^2) @ t=21, gamma=0.145, alpha=0.015
1.3599527406806033
% TCN (m^2) @ t=21, gamma=0.145, alpha=0.015
0.0029110507028722882
% TCTL (m^2) @ t=22, gamma=0.145, alpha=0.015
1.4177590289853974
% TCN (m^2) @ t=22, gamma=0.145, alpha=0.015
0.0031665341060491373
% TCTL (m^2) @ t=23, gamma=0.145, alpha=0.015
1.4786792599863414
% TCN (m^2) @ t=23, gamma=0.145, alpha=0.015
0.0034396627832496965
% TCTL (m^2) @ t=24, gamma=0.145, alpha=0.015
1.5427689598731371
% TCN (m^2) @ t=24, gamma=0.145, alpha=0.015
0.0037308452629004193
% TCTL (m^2) @ t=25, gamma=0.145, alpha=0.015
1.6100484806706072
% TCN (m^2) @ t=25, gamma=0.145, alpha=0.015
0.004040720639752355
% TCTL (m^2) @ t=26, gamma=0.145, alpha=0.015
1.680806184870246
% TCN (m^2) @ t=26, gamma=0.145, alpha=0.015
0.00436820935951371
% TCTL (m^2) @ t=27, gamma=0.145, alpha=0.015
1.7552158503812534
% TCN (m^2) @ t=27, gamma=0.145, alpha=0.015
0.004712964837299422
% TCTL (m^2) @ t=28, gamma=0.145, alpha=0.015
1.833462062257432
% TCN (m^2) @ t=28, gamma=0.145, alpha=0.015
0.0050745713575767615
% TCTL (m^2) @ t=29, gamma=0.145, alpha=0.015
1.9156086533567198
% TCN (m^2) @ t=29, gamma=0.145, alpha=0.015
0.005452193112172881
% TCTL (m^2) @ t=30, gamma=0.145, alpha=0.015
2.0018626821645635
% TCN (m^2) @ t=30, gamma=0.145, alpha=0.015
0.005844857057621705
% TCTL (m^2) @ t=31, gamma=0.145, alpha=0.015
2.0924236572796886
% TCN (m^2) @ t=31, gamma=0.145, alpha=0.015
0.006251393058762603
% TCTL (m^2) @ t=32, gamma=0.145, alpha=0.015
2.1872768908225613
% TCN (m^2) @ t=32, gamma=0.145, alpha=0.015
0.006669590703259879
% TCTL (m^2) @ t=33, gamma=0.145, alpha=0.015
2.286590839330059
% TCN (m^2) @ t=33, gamma=0.145, alpha=0.015
0.0070977309828824855
% TCTL (m^2) @ t=34, gamma=0.145, alpha=0.015
2.390479641766971
% TCN (m^2) @ t=34, gamma=0.145, alpha=0.015
0.007533588047966071
% TCTL (m^2) @ t=35, gamma=0.145, alpha=0.015
2.499294280295654
% TCN (m^2) @ t=35, gamma=0.145, alpha=0.015
0.007974005380438624
% TCTL (m^2) @ t=36, gamma=0.145, alpha=0.015
2.6131648627861512
% TCN (m^2) @ t=36, gamma=0.145, alpha=0.015
0.008416114465085524
% TCTL (m^2) @ t=37, gamma=0.145, alpha=0.015
2.732316167330077
% TCN (m^2) @ t=37, gamma=0.145, alpha=0.015
0.008856378335927801
% TCTL (m^2) @ t=38, gamma=0.145, alpha=0.015
2.8570497187756843
% TCN (m^2) @ t=38, gamma=0.145, alpha=0.015
0.0092900511755336
% TCTL (m^2) @ t=39, gamma=0.145, alpha=0.015
2.987554201916301
% TCN (m^2) @ t=39, gamma=0.145, alpha=0.015
0.009714302168770388
% TCTL (m^2) @ t=40, gamma=0.145, alpha=0.015
3.1240751342038595
% TCN (m^2) @ t=40, gamma=0.145, alpha=0.015
0.010125343020421671
% TCTL (m^2) @ t=41, gamma=0.145, alpha=0.015
3.2669503087307428
% TCN (m^2) @ t=41, gamma=0.145, alpha=0.015
0.01051790088792691
% TCTL (m^2) @ t=42, gamma=0.145, alpha=0.015
3.41639406766989
% TCN (m^2) @ t=42, gamma=0.145, alpha=0.015
0.01088868902964788
% TCTL (m^2) @ t=43, gamma=0.145, alpha=0.015
3.572697552246181
% TCN (m^2) @ t=43, gamma=0.145, alpha=0.015
0.01123344912929925
% TCTL (m^2) @ t=44, gamma=0.145, alpha=0.015
3.7362556172353583
% TCN (m^2) @ t=44, gamma=0.145, alpha=0.015
0.011547012869413937
% TCTL (m^2) @ t=45, gamma=0.145, alpha=0.015
3.9073097200129396
% TCN (m^2) @ t=45, gamma=0.145, alpha=0.015
0.011825557868657008
% TCTL (m^2) @ t=46, gamma=0.145, alpha=0.015
4.086205843649358
% TCN (m^2) @ t=46, gamma=0.145, alpha=0.015
0.012065138139213689
% TCTL (m^2) @ t=47, gamma=0.145, alpha=0.015
4.273380249829371
% TCN (m^2) @ t=47, gamma=0.145, alpha=0.015
0.012262383060005292
% TCTL (m^2) @ t=48, gamma=0.145, alpha=0.015
4.469114955868268
% TCN (m^2) @ t=48, gamma=0.145, alpha=0.015
0.012412938974489987
% TCTL (m^2) @ t=49, gamma=0.145, alpha=0.015
4.673817377766295
% TCN (m^2) @ t=49, gamma=0.145, alpha=0.015
0.012513868124170432
% TCTL (m^2) @ t=50, gamma=0.145, alpha=0.015
4.88796352898569
% TCN (m^2) @ t=50, gamma=0.145, alpha=0.015
0.012563265740455038
% TCTL (m^2) @ t=51, gamma=0.145, alpha=0.015
5.1118816684425825
% TCN (m^2) @ t=51, gamma=0.145, alpha=0.015
0.012557002060558707
% TCTL (m^2) @ t=52, gamma=0.145, alpha=0.015
5.346049246234171
% TCN (m^2) @ t=52, gamma=0.145, alpha=0.015
0.012496136546710593
% TCTL (m^2) @ t=53, gamma=0.145, alpha=0.015
5.590984311991736
% TCN (m^2) @ t=53, gamma=0.145, alpha=0.015
0.01238360288651574
% TCTL (m^2) @ t=54, gamma=0.145, alpha=0.015
5.8470662646512785
% TCN (m^2) @ t=54, gamma=0.145, alpha=0.015
0.0122159341362055
% TCTL (m^2) @ t=55, gamma=0.145, alpha=0.015
6.115610414369257
% TCN (m^2) @ t=55, gamma=0.145, alpha=0.015
0.011991070602297432
% TCTL (m^2) @ t=56, gamma=0.145, alpha=0.015
6.39696283300402
% TCN (m^2) @ t=56, gamma=0.145, alpha=0.015
0.01170865426790528
% TCTL (m^2) @ t=57, gamma=0.145, alpha=0.015
6.690598569171524
% TCN (m^2) @ t=57, gamma=0.145, alpha=0.015
0.011369415877436888
% TCTL (m^2) @ t=58, gamma=0.145, alpha=0.015
6.998205519468831
% TCN (m^2) @ t=58, gamma=0.145, alpha=0.015
0.010987916324935842
% TCTL (m^2) @ t=59, gamma=0.145, alpha=0.015
7.320157977886462
% TCN (m^2) @ t=59, gamma=0.145, alpha=0.015
0.01056738451384722
% TCTL (m^2) @ t=60, gamma=0.145, alpha=0.015
7.655824507521633
% TCN (m^2) @ t=60, gamma=0.145, alpha=0.015
0.010102373258690164
% TCTL (m^2) @ t=61, gamma=0.145, alpha=0.015
8.007451786957272
% TCN (m^2) @ t=61, gamma=0.145, alpha=0.015
0.009608840956722701
% TCTL (m^2) @ t=62, gamma=0.145, alpha=0.015
8.37506334637525
% TCN (m^2) @ t=62, gamma=0.145, alpha=0.015
0.009086954745332707
% TCTL (m^2) @ t=63, gamma=0.145, alpha=0.015
8.75806456841885
% TCN (m^2) @ t=63, gamma=0.145, alpha=0.015
0.008532490994105303
% TCTL (m^2) @ t=64, gamma=0.145, alpha=0.015
9.159011322721822
% TCN (m^2) @ t=64, gamma=0.145, alpha=0.015
0.007977012376431138
% TCTL (m^2) @ t=65, gamma=0.145, alpha=0.015
9.577488799444483
% TCN (m^2) @ t=65, gamma=0.145, alpha=0.015
0.0074153963667641185
% TCTL (m^2) @ t=66, gamma=0.145, alpha=0.015
10.013051374563496
% TCN (m^2) @ t=66, gamma=0.145, alpha=0.015
0.006842139912321306
% TCTL (m^2) @ t=67, gamma=0.145, alpha=0.015
10.468051931136683
% TCN (m^2) @ t=67, gamma=0.145, alpha=0.015
0.006273904676081539
% TCTL (m^2) @ t=68, gamma=0.145, alpha=0.015
10.941769774180392
% TCN (m^2) @ t=68, gamma=0.145, alpha=0.015
0.005705587141791297
% TCTL (m^2) @ t=69, gamma=0.145, alpha=0.015
11.433973454545912
% TCN (m^2) @ t=69, gamma=0.145, alpha=0.015
0.00513554832968927
% TCTL (m^2) @ t=70, gamma=0.145, alpha=0.015
11.945469857703122
% TCN (m^2) @ t=70, gamma=0.145, alpha=0.015
0.004602565852392947
% TCTL (m^2) @ t=71, gamma=0.145, alpha=0.015
12.475913434522688
% TCN (m^2) @ t=71, gamma=0.145, alpha=0.015
0.004090033176783781
% TCTL (m^2) @ t=72, gamma=0.145, alpha=0.015
13.022442047677822
% TCN (m^2) @ t=72, gamma=0.145, alpha=0.015
0.003607352618357853
% TCTL (m^2) @ t=73, gamma=0.145, alpha=0.015
13.58572083340334
% TCN (m^2) @ t=73, gamma=0.145, alpha=0.015
0.003152014456510503
% TCTL (m^2) @ t=74, gamma=0.145, alpha=0.015
14.156506584712032
% TCN (m^2) @ t=74, gamma=0.145, alpha=0.015
0.00272996438429358
% TCTL (m^2) @ t=75, gamma=0.145, alpha=0.015
14.736672336078607
% TCN (m^2) @ t=75, gamma=0.145, alpha=0.015
0.0023399194554259393
% TCTL (m^2) @ t=76, gamma=0.145, alpha=0.015
15.302903020786648
% TCN (m^2) @ t=76, gamma=0.145, alpha=0.015
0.001988081445635595
% TCTL (m^2) @ t=77, gamma=0.145, alpha=0.015
15.859108180053525
% TCN (m^2) @ t=77, gamma=0.145, alpha=0.015
0.0016733726963804592
% TCTL (m^2) @ t=78, gamma=0.145, alpha=0.015
16.373932115924358
% TCN (m^2) @ t=78, gamma=0.145, alpha=0.015
0.0013936791762733272
% TCTL (m^2) @ t=79, gamma=0.145, alpha=0.015
16.832201247252257
% TCN (m^2) @ t=79, gamma=0.145, alpha=0.015
0.001148254898814045
% TCTL (m^2) @ t=80, gamma=0.145, alpha=0.015
17.174776085055747
% TCN (m^2) @ t=80, gamma=0.145, alpha=0.015
9.364143819018152E-4
% TCTL (m^2) @ t=81, gamma=0.145, alpha=0.015
17.362626543773274
% TCN (m^2) @ t=81, gamma=0.145, alpha=0.015
7.573671562486218E-4
% TCTL (m^2) @ t=82, gamma=0.145, alpha=0.015
17.36355910680399
% TCN (m^2) @ t=82, gamma=0.145, alpha=0.015
6.062607238604763E-4
% TCTL (m^2) @ t=83, gamma=0.145, alpha=0.015
17.140486631499435
% TCN (m^2) @ t=83, gamma=0.145, alpha=0.015
4.8003021008421716E-4
% TCTL (m^2) @ t=84, gamma=0.145, alpha=0.015
16.676937190368104
% TCN (m^2) @ t=84, gamma=0.145, alpha=0.015
3.7732987946570873E-4
% TCTL (m^2) @ t=85, gamma=0.145, alpha=0.015
15.94857753344811
% TCN (m^2) @ t=85, gamma=0.145, alpha=0.015
2.959826589452193E-4
% TCTL (m^2) @ t=86, gamma=0.145, alpha=0.015
15.041654774014582
% TCN (m^2) @ t=86, gamma=0.145, alpha=0.015
2.3106065226796655E-4
% TCTL (m^2) @ t=87, gamma=0.145, alpha=0.015
14.00698297852223
% TCN (m^2) @ t=87, gamma=0.145, alpha=0.015
1.7859450807751508E-4
% TCTL (m^2) @ t=88, gamma=0.145, alpha=0.015
12.896902609499918
% TCN (m^2) @ t=88, gamma=0.145, alpha=0.015
1.3690769060094632E-4
% TCTL (m^2) @ t=89, gamma=0.145, alpha=0.015
11.786523138486885
% TCN (m^2) @ t=89, gamma=0.145, alpha=0.015
1.0446238620771937E-4
% TCTL (m^2) @ t=90, gamma=0.145, alpha=0.015
10.70709267945747
% TCN (m^2) @ t=90, gamma=0.145, alpha=0.015
7.9914463685541E-5
% TCTL (m^2) @ t=91, gamma=0.145, alpha=0.015
9.69667170333294
% TCN (m^2) @ t=91, gamma=0.145, alpha=0.015
6.175367185525428E-5
% TCTL (m^2) @ t=92, gamma=0.145, alpha=0.015
8.766710830930347
% TCN (m^2) @ t=92, gamma=0.145, alpha=0.015
4.8458374150319534E-5
% TCTL (m^2) @ t=93, gamma=0.145, alpha=0.015
7.928305820443759
% TCN (m^2) @ t=93, gamma=0.145, alpha=0.015
3.855667594565099E-5
% TCTL (m^2) @ t=94, gamma=0.145, alpha=0.015
7.171445303347849
% TCN (m^2) @ t=94, gamma=0.145, alpha=0.015
3.091158502023809E-5
% TCTL (m^2) @ t=95, gamma=0.145, alpha=0.015
6.486568505377042
% TCN (m^2) @ t=95, gamma=0.145, alpha=0.015
2.5024568897232653E-5
% TCTL (m^2) @ t=96, gamma=0.145, alpha=0.015
5.8666591355247135
% TCN (m^2) @ t=96, gamma=0.145, alpha=0.015
2.053581853813472E-5
% TCTL (m^2) @ t=97, gamma=0.145, alpha=0.015
5.305938730413023
% TCN (m^2) @ t=97, gamma=0.145, alpha=0.015
1.7219471010808622E-5
% TCTL (m^2) @ t=98, gamma=0.145, alpha=0.015
4.799466891744261
% TCN (m^2) @ t=98, gamma=0.145, alpha=0.015
1.4791253621957248E-5
% TCTL (m^2) @ t=99, gamma=0.145, alpha=0.015
4.342452005474783
% TCN (m^2) @ t=99, gamma=0.145, alpha=0.015
1.3037093134549319E-5
% TCTL (m^2) @ t=100, gamma=0.145, alpha=0.015
3.9292954623800984
% TCN (m^2) @ t=100, gamma=0.145, alpha=0.015
1.1768101302093016E-5
% TCTL (m^2) @ t=101, gamma=0.145, alpha=0.015
3.5563394452078816
% TCN (m^2) @ t=101, gamma=0.145, alpha=0.015
1.0903559330519767E-5
% TCTL (m^2) @ t=102, gamma=0.145, alpha=0.015
3.2192999109032194
% TCN (m^2) @ t=102, gamma=0.145, alpha=0.015
1.032678965996007E-5
% TCTL (m^2) @ t=103, gamma=0.145, alpha=0.015
2.914579443119382
% TCN (m^2) @ t=103, gamma=0.145, alpha=0.015
9.982595864353048E-6
% TCTL (m^2) @ t=104, gamma=0.145, alpha=0.015
2.6380892874268906
% TCN (m^2) @ t=104, gamma=0.145, alpha=0.015
9.770273293683328E-6
% TCTL (m^2) @ t=105, gamma=0.145, alpha=0.015
2.388293186789413
% TCN (m^2) @ t=105, gamma=0.145, alpha=0.015
9.732099270369181E-6
% TCTL (m^2) @ t=106, gamma=0.145, alpha=0.015
2.161546106580298
% TCN (m^2) @ t=106, gamma=0.145, alpha=0.015
9.796527391851896E-6
% TCTL (m^2) @ t=107, gamma=0.145, alpha=0.015
1.9563434573170744
% TCN (m^2) @ t=107, gamma=0.145, alpha=0.015
1.0002853268119247E-5
% TCTL (m^2) @ t=108, gamma=0.145, alpha=0.015
1.7704871363836114
% TCN (m^2) @ t=108, gamma=0.145, alpha=0.015
1.0354992638394471E-5
% TCTL (m^2) @ t=109, gamma=0.145, alpha=0.015
1.6021641708670153
% TCN (m^2) @ t=109, gamma=0.145, alpha=0.015
1.0867784751193034E-5
% TCTL (m^2) @ t=110, gamma=0.145, alpha=0.015
1.449947290320954
% TCN (m^2) @ t=110, gamma=0.145, alpha=0.015
1.1573581331592696E-5
% TCTL (m^2) @ t=111, gamma=0.145, alpha=0.015
1.3120817006174565
% TCN (m^2) @ t=111, gamma=0.145, alpha=0.015
1.2485834010054869E-5
% TCTL (m^2) @ t=112, gamma=0.145, alpha=0.015
1.1875018091415206
% TCN (m^2) @ t=112, gamma=0.145, alpha=0.015
1.3635589711475724E-5
% TCTL (m^2) @ t=113, gamma=0.145, alpha=0.015
1.0746091260658932
% TCN (m^2) @ t=113, gamma=0.145, alpha=0.015
1.5045069498408914E-5
% TCTL (m^2) @ t=114, gamma=0.145, alpha=0.015
0.9725568115474734
% TCN (m^2) @ t=114, gamma=0.145, alpha=0.015
1.6758068221976745E-5
% TCTL (m^2) @ t=115, gamma=0.145, alpha=0.015
0.8802135115326041
% TCN (m^2) @ t=115, gamma=0.145, alpha=0.015
1.880975064969944E-5
% TCTL (m^2) @ t=116, gamma=0.145, alpha=0.015
0.7966565642923935
% TCN (m^2) @ t=116, gamma=0.145, alpha=0.015
2.1258047961838425E-5
% TCTL (m^2) @ t=117, gamma=0.145, alpha=0.015
0.7210935643135128
% TCN (m^2) @ t=117, gamma=0.145, alpha=0.015
2.415733082187683E-5
% TCTL (m^2) @ t=118, gamma=0.145, alpha=0.015
0.6527458530292017
% TCN (m^2) @ t=118, gamma=0.145, alpha=0.015
2.7605670837508472E-5
% TCTL (m^2) @ t=119, gamma=0.145, alpha=0.015
0.5909649412510098
% TCN (m^2) @ t=119, gamma=0.145, alpha=0.015
3.170242710407312E-5
% TCTL (m^2) @ t=120, gamma=0.145, alpha=0.015
0.5351431107001023
% TCN (m^2) @ t=120, gamma=0.145, alpha=0.015
3.656714893811611E-5
% TCTL (m^2) @ t=121, gamma=0.145, alpha=0.015
0.48472897158318995
% TCN (m^2) @ t=121, gamma=0.145, alpha=0.015
4.2340330948894596E-5
% TCTL (m^2) @ t=122, gamma=0.145, alpha=0.015
0.4393225807804188
% TCN (m^2) @ t=122, gamma=0.145, alpha=0.015
4.923254944330272E-5
% TCTL (m^2) @ t=123, gamma=0.145, alpha=0.015
0.3985291752501867
% TCN (m^2) @ t=123, gamma=0.145, alpha=0.015
5.750444792613569E-5
% TCTL (m^2) @ t=124, gamma=0.145, alpha=0.015
0.36186274147733555
% TCN (m^2) @ t=124, gamma=0.145, alpha=0.015
6.732356641762647E-5
% TCTL (m^2) @ t=125, gamma=0.145, alpha=0.015
0.328950712940576
% TCN (m^2) @ t=125, gamma=0.145, alpha=0.015
7.89655515610731E-5
% TCTL (m^2) @ t=126, gamma=0.145, alpha=0.015
0.2996183093451501
% TCN (m^2) @ t=126, gamma=0.145, alpha=0.015
9.28947899501289E-5
% TCTL (m^2) @ t=127, gamma=0.145, alpha=0.015
0.2733836934705307
% TCN (m^2) @ t=127, gamma=0.145, alpha=0.015
1.09282655313282E-4
% TCTL (m^2) @ t=128, gamma=0.145, alpha=0.015
0.24992403635120058
% TCN (m^2) @ t=128, gamma=0.145, alpha=0.015
1.2847074509590912E-4
% TCTL (m^2) @ t=129, gamma=0.145, alpha=0.015
0.22947581851423104
% TCN (m^2) @ t=129, gamma=0.145, alpha=0.015
1.5153654986758584E-4
% TCTL (m^2) @ t=130, gamma=0.145, alpha=0.015
0.2115529879678979
% TCN (m^2) @ t=130, gamma=0.145, alpha=0.015
1.786069117293114E-4
% TCTL (m^2) @ t=131, gamma=0.145, alpha=0.015
0.19590916884485993
% TCN (m^2) @ t=131, gamma=0.145, alpha=0.015
2.1012401878336734E-4
% TCTL (m^2) @ t=132, gamma=0.145, alpha=0.015
0.18280414396999775
% TCN (m^2) @ t=132, gamma=0.145, alpha=0.015
2.4775741801322823E-4
% TCTL (m^2) @ t=133, gamma=0.145, alpha=0.015
0.1719684464653347
% TCN (m^2) @ t=133, gamma=0.145, alpha=0.015
2.9189330528511814E-4
% TCTL (m^2) @ t=134, gamma=0.145, alpha=0.015
0.1632360451364295
% TCN (m^2) @ t=134, gamma=0.145, alpha=0.015
3.431686924776501E-4
% TCTL (m^2) @ t=135, gamma=0.145, alpha=0.015
0.15660427878494715
% TCN (m^2) @ t=135, gamma=0.145, alpha=0.015
4.035974417143965E-4
% TCTL (m^2) @ t=136, gamma=0.145, alpha=0.015
0.1519922275197988
% TCN (m^2) @ t=136, gamma=0.145, alpha=0.015
4.744287473202206E-4
% TCTL (m^2) @ t=137, gamma=0.145, alpha=0.015
0.14927070127718362
% TCN (m^2) @ t=137, gamma=0.145, alpha=0.015
5.564401544597912E-4
% TCTL (m^2) @ t=138, gamma=0.145, alpha=0.015
0.14828724097248921
% TCN (m^2) @ t=138, gamma=0.145, alpha=0.015
6.519692020106985E-4
% TCTL (m^2) @ t=139, gamma=0.145, alpha=0.015
0.14887794889424844
% TCN (m^2) @ t=139, gamma=0.145, alpha=0.015
7.636060943773147E-4
% TCTL (m^2) @ t=140, gamma=0.145, alpha=0.015
0.15095310947645285
% TCN (m^2) @ t=140, gamma=0.145, alpha=0.015
8.923024414807575E-4
% TCTL (m^2) @ t=141, gamma=0.145, alpha=0.015
0.15432801683720118
% TCN (m^2) @ t=141, gamma=0.145, alpha=0.015
0.0010403145502318359
% TCTL (m^2) @ t=142, gamma=0.145, alpha=0.015
0.15865914573288653
% TCN (m^2) @ t=142, gamma=0.145, alpha=0.015
0.0012114244415869502
% TCTL (m^2) @ t=143, gamma=0.145, alpha=0.015
0.1637856091119949
% TCN (m^2) @ t=143, gamma=0.145, alpha=0.015
0.00140765960448608
% TCTL (m^2) @ t=144, gamma=0.145, alpha=0.015
0.16949900463894957
% TCN (m^2) @ t=144, gamma=0.145, alpha=0.015
0.0016320524985993143
% TCTL (m^2) @ t=145, gamma=0.145, alpha=0.015
0.17597377359114633
% TCN (m^2) @ t=145, gamma=0.145, alpha=0.015
0.001889233447714779
% TCTL (m^2) @ t=146, gamma=0.145, alpha=0.015
0.1829684935059075
% TCN (m^2) @ t=146, gamma=0.145, alpha=0.015
0.0021826301829489373
% TCTL (m^2) @ t=147, gamma=0.145, alpha=0.015
0.19039532515029045
% TCN (m^2) @ t=147, gamma=0.145, alpha=0.015
0.002516464458436802
% TCTL (m^2) @ t=148, gamma=0.145, alpha=0.015
0.19838891912289863
% TCN (m^2) @ t=148, gamma=0.145, alpha=0.015
0.002896636383831297
% TCTL (m^2) @ t=149, gamma=0.145, alpha=0.015
0.2069290703771116
% TCN (m^2) @ t=149, gamma=0.145, alpha=0.015
0.003328233272942855
% TCTL (m^2) @ t=150, gamma=0.145, alpha=0.015
0.21606823594518537
% TCN (m^2) @ t=150, gamma=0.145, alpha=0.015
0.003817031665421978
% TCTL (m^2) @ t=151, gamma=0.145, alpha=0.015
0.22571052554578172
% TCN (m^2) @ t=151, gamma=0.145, alpha=0.015
0.004369128653529899
% TCTL (m^2) @ t=152, gamma=0.145, alpha=0.015
0.23585484875651233
% TCN (m^2) @ t=152, gamma=0.145, alpha=0.015
0.004991087211700019
% TCTL (m^2) @ t=153, gamma=0.145, alpha=0.015
0.24656705400565979
% TCN (m^2) @ t=153, gamma=0.145, alpha=0.015
0.005689914618471046
% TCTL (m^2) @ t=154, gamma=0.145, alpha=0.015
0.25789869884386807
% TCN (m^2) @ t=154, gamma=0.145, alpha=0.015
0.006474235699202996
% TCTL (m^2) @ t=155, gamma=0.145, alpha=0.015
0.26991740114206797
% TCN (m^2) @ t=155, gamma=0.145, alpha=0.015
0.007353656447157064
% TCTL (m^2) @ t=156, gamma=0.145, alpha=0.015
0.28269063621069596
% TCN (m^2) @ t=156, gamma=0.145, alpha=0.015
0.008336986152778149
% TCTL (m^2) @ t=157, gamma=0.145, alpha=0.015
0.29616802285307803
% TCN (m^2) @ t=157, gamma=0.145, alpha=0.015
0.009433351871652541
% TCTL (m^2) @ t=158, gamma=0.145, alpha=0.015
0.3100233277602516
% TCN (m^2) @ t=158, gamma=0.145, alpha=0.015
0.010650668731976908
% TCTL (m^2) @ t=159, gamma=0.145, alpha=0.015
0.3242855583674258
% TCN (m^2) @ t=159, gamma=0.145, alpha=0.015
0.011999615066612377
% TCTL (m^2) @ t=160, gamma=0.145, alpha=0.015
0.33893064667424116
% TCN (m^2) @ t=160, gamma=0.145, alpha=0.015
0.013491766103163279
% TCTL (m^2) @ t=161, gamma=0.145, alpha=0.015
0.3546448467985319
% TCN (m^2) @ t=161, gamma=0.145, alpha=0.015
0.015147505589456432
% TCTL (m^2) @ t=162, gamma=0.145, alpha=0.015
0.3711918547321651
% TCN (m^2) @ t=162, gamma=0.145, alpha=0.015
0.016974626798110237
% TCTL (m^2) @ t=163, gamma=0.145, alpha=0.015
0.3886427568449938
% TCN (m^2) @ t=163, gamma=0.145, alpha=0.015
0.018985231859102447
% TCTL (m^2) @ t=164, gamma=0.145, alpha=0.015
0.4068678850867016
% TCN (m^2) @ t=164, gamma=0.145, alpha=0.015
0.021192668759454324
% TCTL (m^2) @ t=165, gamma=0.145, alpha=0.015
0.42596619045077744
% TCN (m^2) @ t=165, gamma=0.145, alpha=0.015
0.023608866704743776
% TCTL (m^2) @ t=166, gamma=0.145, alpha=0.015
0.44597234166009325
% TCN (m^2) @ t=166, gamma=0.145, alpha=0.015
0.02624615382835091
% TCTL (m^2) @ t=167, gamma=0.145, alpha=0.015
0.4668209222725149
% TCN (m^2) @ t=167, gamma=0.145, alpha=0.015
0.029125044152305338
% TCTL (m^2) @ t=168, gamma=0.145, alpha=0.015
0.48851682532982976
% TCN (m^2) @ t=168, gamma=0.145, alpha=0.015
0.03226007353809237
% TCTL (m^2) @ t=169, gamma=0.145, alpha=0.015
0.5110824177515692
% TCN (m^2) @ t=169, gamma=0.145, alpha=0.015
0.035664292106715206
% TCTL (m^2) @ t=170, gamma=0.145, alpha=0.015
0.5346278857292803
% TCN (m^2) @ t=170, gamma=0.145, alpha=0.015
0.03935259243111715
% TCTL (m^2) @ t=171, gamma=0.145, alpha=0.015
0.5592569565936993
% TCN (m^2) @ t=171, gamma=0.145, alpha=0.015
0.043339847681733455
% TCTL (m^2) @ t=172, gamma=0.145, alpha=0.015
0.5849674627388475
% TCN (m^2) @ t=172, gamma=0.145, alpha=0.015
0.047640612919129896
% TCTL (m^2) @ t=173, gamma=0.145, alpha=0.015
0.6118224994285122
% TCN (m^2) @ t=173, gamma=0.145, alpha=0.015
0.05226820133443179
% TCTL (m^2) @ t=174, gamma=0.145, alpha=0.015
0.639906985875863
% TCN (m^2) @ t=174, gamma=0.145, alpha=0.015
0.05723415679713713
% TCTL (m^2) @ t=175, gamma=0.145, alpha=0.015
0.6692611431015251
% TCN (m^2) @ t=175, gamma=0.145, alpha=0.015
0.06255364696991661
% TCTL (m^2) @ t=176, gamma=0.145, alpha=0.015
0.6999475660735899
% TCN (m^2) @ t=176, gamma=0.145, alpha=0.015
0.06823617716125625
% TCTL (m^2) @ t=177, gamma=0.145, alpha=0.015
0.7320587592232628
% TCN (m^2) @ t=177, gamma=0.145, alpha=0.015
0.07426838185756901
% TCTL (m^2) @ t=178, gamma=0.145, alpha=0.015
0.7656453678728123
% TCN (m^2) @ t=178, gamma=0.145, alpha=0.015
0.08066890388420159
% TCTL (m^2) @ t=179, gamma=0.145, alpha=0.015
0.800772303600402
% TCN (m^2) @ t=179, gamma=0.145, alpha=0.015
0.08744547711106379
% TCTL (m^2) @ t=180, gamma=0.145, alpha=0.015
0.8375044779841918
% TCN (m^2) @ t=180, gamma=0.145, alpha=0.015
0.09460583540806478
% TCTL (m^2) @ t=181, gamma=0.145, alpha=0.015
0.8759068026023513
% TCN (m^2) @ t=181, gamma=0.145, alpha=0.015
0.10215771264511408
% TCTL (m^2) @ t=182, gamma=0.145, alpha=0.015
0.9160441890330356
% TCN (m^2) @ t=182, gamma=0.145, alpha=0.015
0.11010884269212196
% TCTL (m^2) @ t=183, gamma=0.145, alpha=0.015
0.9580751222291615
% TCN (m^2) @ t=183, gamma=0.145, alpha=0.015
0.11837480796886575
% TCTL (m^2) @ t=184, gamma=0.145, alpha=0.015
1.0020464615316629
% TCN (m^2) @ t=184, gamma=0.145, alpha=0.015
0.12698112026384656
% TCTL (m^2) @ t=185, gamma=0.145, alpha=0.015
1.0480144507277633
% TCN (m^2) @ t=185, gamma=0.145, alpha=0.015
0.13594404952368147
% TCTL (m^2) @ t=186, gamma=0.145, alpha=0.015
1.0960533831419048
% TCN (m^2) @ t=186, gamma=0.145, alpha=0.015
0.14526209043537086
% TCTL (m^2) @ t=187, gamma=0.145, alpha=0.015
1.146237552098536
% TCN (m^2) @ t=187, gamma=0.145, alpha=0.015
0.15493373768591734
% TCTL (m^2) @ t=188, gamma=0.145, alpha=0.015
1.1986412509221005
% TCN (m^2) @ t=188, gamma=0.145, alpha=0.015
0.16495748596232385
% TCTL (m^2) @ t=189, gamma=0.145, alpha=0.015
1.2534578979545734
% TCN (m^2) @ t=189, gamma=0.145, alpha=0.015
0.17521663784672953
% TCTL (m^2) @ t=190, gamma=0.145, alpha=0.015
1.310908327309481
% TCN (m^2) @ t=190, gamma=0.145, alpha=0.015
0.18556798528147514
% TCTL (m^2) @ t=191, gamma=0.145, alpha=0.015
1.3709520742473615
% TCN (m^2) @ t=191, gamma=0.145, alpha=0.015
0.19612099227978308
% TCTL (m^2) @ t=192, gamma=0.145, alpha=0.015
1.4336827759344482
% TCN (m^2) @ t=192, gamma=0.145, alpha=0.015
0.20685544832383423
% TCTL (m^2) @ t=193, gamma=0.145, alpha=0.015
1.4991940695369772
% TCN (m^2) @ t=193, gamma=0.145, alpha=0.015
0.21775114289581057
% TCTL (m^2) @ t=194, gamma=0.145, alpha=0.015
1.5675795922211884
% TCN (m^2) @ t=194, gamma=0.145, alpha=0.015
0.22878786547789337
% TCTL (m^2) @ t=195, gamma=0.145, alpha=0.015
1.638942312210797
% TCN (m^2) @ t=195, gamma=0.145, alpha=0.015
0.2399381652711522
% TCTL (m^2) @ t=196, gamma=0.145, alpha=0.015
1.7138790984034475
% TCN (m^2) @ t=196, gamma=0.145, alpha=0.015
0.2507913573439346
% TCTL (m^2) @ t=197, gamma=0.145, alpha=0.015
1.7921969146553227
% TCN (m^2) @ t=197, gamma=0.145, alpha=0.015
0.261549670634678
% TCTL (m^2) @ t=198, gamma=0.145, alpha=0.015
1.8740198749065446
% TCN (m^2) @ t=198, gamma=0.145, alpha=0.015
0.2721692466723962
% TCTL (m^2) @ t=199, gamma=0.145, alpha=0.015
1.9594720930972218
% TCN (m^2) @ t=199, gamma=0.145, alpha=0.015
0.28260622698610394
% TCTL (m^2) @ t=200, gamma=0.145, alpha=0.015
2.048677683167478
% TCN (m^2) @ t=200, gamma=0.145, alpha=0.015
0.29281675310481514
% TCTL (m^2) @ t=0, gamma=0.145, alpha=0.0175
0.8999909209220578
% TCN (m^2) @ t=0, gamma=0.145, alpha=0.0175
4.638471034611333E-4
% TCTL (m^2) @ t=1, gamma=0.145, alpha=0.0175
0.882145755254112
% TCN (m^2) @ t=1, gamma=0.145, alpha=0.0175
5.218209102030786E-4
% TCTL (m^2) @ t=2, gamma=0.145, alpha=0.0175
0.8722499389449214
% TCN (m^2) @ t=2, gamma=0.145, alpha=0.0175
5.872862572785659E-4
% TCTL (m^2) @ t=3, gamma=0.145, alpha=0.0175
0.8682359092921615
% TCN (m^2) @ t=3, gamma=0.145, alpha=0.0175
6.595029120816334E-4
% TCTL (m^2) @ t=4, gamma=0.145, alpha=0.0175
0.8702235309579635
% TCN (m^2) @ t=4, gamma=0.145, alpha=0.0175
7.403186034377003E-4
% TCTL (m^2) @ t=5, gamma=0.145, alpha=0.0175
0.8779510911201811
% TCN (m^2) @ t=5, gamma=0.145, alpha=0.0175
8.307835511382511E-4
% TCTL (m^2) @ t=6, gamma=0.145, alpha=0.0175
0.8909086611643593
% TCN (m^2) @ t=6, gamma=0.145, alpha=0.0175
9.316638900867776E-4
% TCTL (m^2) @ t=7, gamma=0.145, alpha=0.0175
0.9086671445653615
% TCN (m^2) @ t=7, gamma=0.145, alpha=0.0175
0.0010443321682301627
% TCTL (m^2) @ t=8, gamma=0.145, alpha=0.0175
0.9309747769024728
% TCN (m^2) @ t=8, gamma=0.145, alpha=0.0175
0.0011696676466644578
% TCTL (m^2) @ t=9, gamma=0.145, alpha=0.0175
0.9574192624426754
% TCN (m^2) @ t=9, gamma=0.145, alpha=0.0175
0.0013092537389000655
% TCTL (m^2) @ t=10, gamma=0.145, alpha=0.0175
0.987713045688681
% TCN (m^2) @ t=10, gamma=0.145, alpha=0.0175
0.0014643564727496207
% TCTL (m^2) @ t=11, gamma=0.145, alpha=0.0175
1.0216121408250445
% TCN (m^2) @ t=11, gamma=0.145, alpha=0.0175
0.0016365171569814709
% TCTL (m^2) @ t=12, gamma=0.145, alpha=0.0175
1.0590197782429724
% TCN (m^2) @ t=12, gamma=0.145, alpha=0.0175
0.0018278084326806962
% TCTL (m^2) @ t=13, gamma=0.145, alpha=0.0175
1.0997308117105793
% TCN (m^2) @ t=13, gamma=0.145, alpha=0.0175
0.002039914828775825
% TCTL (m^2) @ t=14, gamma=0.145, alpha=0.0175
1.1436312860594893
% TCN (m^2) @ t=14, gamma=0.145, alpha=0.0175
0.0022747961609727893
% TCTL (m^2) @ t=15, gamma=0.145, alpha=0.0175
1.19063643991292
% TCN (m^2) @ t=15, gamma=0.145, alpha=0.0175
0.0025344834037205367
% TCTL (m^2) @ t=16, gamma=0.145, alpha=0.0175
1.2405753287644885
% TCN (m^2) @ t=16, gamma=0.145, alpha=0.0175
0.002820797463407783
% TCTL (m^2) @ t=17, gamma=0.145, alpha=0.0175
1.293512423226966
% TCN (m^2) @ t=17, gamma=0.145, alpha=0.0175
0.003135905642509578
% TCTL (m^2) @ t=18, gamma=0.145, alpha=0.0175
1.3494908542919832
% TCN (m^2) @ t=18, gamma=0.145, alpha=0.0175
0.0034819472274134605
% TCTL (m^2) @ t=19, gamma=0.145, alpha=0.0175
1.4083820834348764
% TCN (m^2) @ t=19, gamma=0.145, alpha=0.0175
0.003860836125239078
% TCTL (m^2) @ t=20, gamma=0.145, alpha=0.0175
1.470350645196819
% TCN (m^2) @ t=20, gamma=0.145, alpha=0.0175
0.0042741826657326145
% TCTL (m^2) @ t=21, gamma=0.145, alpha=0.0175
1.5354770101657704
% TCN (m^2) @ t=21, gamma=0.145, alpha=0.0175
0.004723754889385976
% TCTL (m^2) @ t=22, gamma=0.145, alpha=0.0175
1.6037296035067976
% TCN (m^2) @ t=22, gamma=0.145, alpha=0.0175
0.005211531042927482
% TCTL (m^2) @ t=23, gamma=0.145, alpha=0.0175
1.6752915658790113
% TCN (m^2) @ t=23, gamma=0.145, alpha=0.0175
0.005737496433036933
% TCTL (m^2) @ t=24, gamma=0.145, alpha=0.0175
1.750250235655686
% TCN (m^2) @ t=24, gamma=0.145, alpha=0.0175