% Model:              MODEL_SC_3_0.15_II.mph
% Version:            COMSOL 5.6.0.401
% Date:               May 21 2022, 13:21
% Dimension:          0
% Nodes:              12462
% Expressions:        12462
% Description:        , 
% TCTL (m^2) @ t=0, gamma=0.21, alpha=0.015
0.9000029892949181
% TCN (m^2) @ t=0, gamma=0.21, alpha=0.015
4.638411030243E-4
% TCTL (m^2) @ t=1, gamma=0.21, alpha=0.015
0.9121280797321054
% TCN (m^2) @ t=1, gamma=0.21, alpha=0.015
5.033943331080883E-4
% TCTL (m^2) @ t=2, gamma=0.21, alpha=0.015
0.9315638661772507
% TCN (m^2) @ t=2, gamma=0.21, alpha=0.015
5.440153001264547E-4
% TCTL (m^2) @ t=3, gamma=0.21, alpha=0.015
0.9586100481303896
% TCN (m^2) @ t=3, gamma=0.21, alpha=0.015
5.859555828013837E-4
% TCTL (m^2) @ t=4, gamma=0.21, alpha=0.015
0.9935053906156239
% TCN (m^2) @ t=4, gamma=0.21, alpha=0.015
6.294386585075745E-4
% TCTL (m^2) @ t=5, gamma=0.21, alpha=0.015
1.0365383462939501
% TCN (m^2) @ t=5, gamma=0.21, alpha=0.015
6.747343157771284E-4
% TCTL (m^2) @ t=6, gamma=0.21, alpha=0.015
1.0881099554873732
% TCN (m^2) @ t=6, gamma=0.21, alpha=0.015
7.221441759050187E-4
% TCTL (m^2) @ t=7, gamma=0.21, alpha=0.015
1.1488029995647073
% TCN (m^2) @ t=7, gamma=0.21, alpha=0.015
7.720034239830675E-4
% TCTL (m^2) @ t=8, gamma=0.21, alpha=0.015
1.219241014045029
% TCN (m^2) @ t=8, gamma=0.21, alpha=0.015
8.246260144246194E-4
% TCTL (m^2) @ t=9, gamma=0.21, alpha=0.015
1.3002048714788046
% TCN (m^2) @ t=9, gamma=0.21, alpha=0.015
8.803527728785876E-4
% TCTL (m^2) @ t=10, gamma=0.21, alpha=0.015
1.3926813557974214
% TCN (m^2) @ t=10, gamma=0.21, alpha=0.015
9.395183044916012E-4
% TCTL (m^2) @ t=11, gamma=0.21, alpha=0.015
1.497717649913786
% TCN (m^2) @ t=11, gamma=0.21, alpha=0.015
0.0010024621812476419
% TCTL (m^2) @ t=12, gamma=0.21, alpha=0.015
1.6167883751966436
% TCN (m^2) @ t=12, gamma=0.21, alpha=0.015
0.001069361659071828
% TCTL (m^2) @ t=13, gamma=0.21, alpha=0.015
1.7511650965918935
% TCN (m^2) @ t=13, gamma=0.21, alpha=0.015
0.0011404512936680565
% TCTL (m^2) @ t=14, gamma=0.21, alpha=0.015
1.9027851718647129
% TCN (m^2) @ t=14, gamma=0.21, alpha=0.015
0.0012155467492856095
% TCTL (m^2) @ t=15, gamma=0.21, alpha=0.015
2.073236696698692
% TCN (m^2) @ t=15, gamma=0.21, alpha=0.015
0.0012946594632217063
% TCTL (m^2) @ t=16, gamma=0.21, alpha=0.015
2.2649833767934906
% TCN (m^2) @ t=16, gamma=0.21, alpha=0.015
0.001377061356004602
% TCTL (m^2) @ t=17, gamma=0.21, alpha=0.015
2.480260541589627
% TCN (m^2) @ t=17, gamma=0.21, alpha=0.015
0.0014621736199212166
% TCTL (m^2) @ t=18, gamma=0.21, alpha=0.015
2.721502515206168
% TCN (m^2) @ t=18, gamma=0.21, alpha=0.015
0.0015491102849637594
% TCTL (m^2) @ t=19, gamma=0.21, alpha=0.015
2.9914167626310033
% TCN (m^2) @ t=19, gamma=0.21, alpha=0.015
0.001636834948338366
% TCTL (m^2) @ t=20, gamma=0.21, alpha=0.015
3.2928852796497097
% TCN (m^2) @ t=20, gamma=0.21, alpha=0.015
0.0017241573859362175
% TCTL (m^2) @ t=21, gamma=0.21, alpha=0.015
3.6292695394106214
% TCN (m^2) @ t=21, gamma=0.21, alpha=0.015
0.0018095262403027659
% TCTL (m^2) @ t=22, gamma=0.21, alpha=0.015
4.004215286080683
% TCN (m^2) @ t=22, gamma=0.21, alpha=0.015
0.0018911717442997883
% TCTL (m^2) @ t=23, gamma=0.21, alpha=0.015
4.42216891770157
% TCN (m^2) @ t=23, gamma=0.21, alpha=0.015
0.0019666144970457494
% TCTL (m^2) @ t=24, gamma=0.21, alpha=0.015
4.887113698913032
% TCN (m^2) @ t=24, gamma=0.21, alpha=0.015
0.00203386100827431
% TCTL (m^2) @ t=25, gamma=0.21, alpha=0.015
5.404229641625161
% TCN (m^2) @ t=25, gamma=0.21, alpha=0.015
0.002090435174500096
% TCTL (m^2) @ t=26, gamma=0.21, alpha=0.015
5.978288450244516
% TCN (m^2) @ t=26, gamma=0.21, alpha=0.015
0.0021339752593442
% TCTL (m^2) @ t=27, gamma=0.21, alpha=0.015
6.615337229976655
% TCN (m^2) @ t=27, gamma=0.21, alpha=0.015
0.00216163173760439
% TCTL (m^2) @ t=28, gamma=0.21, alpha=0.015
7.3211739760267776
% TCN (m^2) @ t=28, gamma=0.21, alpha=0.015
0.0021715664511559258
% TCTL (m^2) @ t=29, gamma=0.21, alpha=0.015
8.10246897095847
% TCN (m^2) @ t=29, gamma=0.21, alpha=0.015
0.002162296375710654
% TCTL (m^2) @ t=30, gamma=0.21, alpha=0.015
8.965591592020107
% TCN (m^2) @ t=30, gamma=0.21, alpha=0.015
0.002131992571796349
% TCTL (m^2) @ t=31, gamma=0.21, alpha=0.015
9.917115952902266
% TCN (m^2) @ t=31, gamma=0.21, alpha=0.015
0.00207899524791801
% TCTL (m^2) @ t=32, gamma=0.21, alpha=0.015
10.96864859186778
% TCN (m^2) @ t=32, gamma=0.21, alpha=0.015
0.002003715748691907
% TCTL (m^2) @ t=33, gamma=0.21, alpha=0.015
12.118185545660198
% TCN (m^2) @ t=33, gamma=0.21, alpha=0.015
0.0019064257399450996
% TCTL (m^2) @ t=34, gamma=0.21, alpha=0.015
13.37081814022774
% TCN (m^2) @ t=34, gamma=0.21, alpha=0.015
0.0017902691647261027
% TCTL (m^2) @ t=35, gamma=0.21, alpha=0.015
14.722491691587798
% TCN (m^2) @ t=35, gamma=0.21, alpha=0.015
0.0016562870579315977
% TCTL (m^2) @ t=36, gamma=0.21, alpha=0.015
16.166256605251657
% TCN (m^2) @ t=36, gamma=0.21, alpha=0.015
0.0015106354136066296
% TCTL (m^2) @ t=37, gamma=0.21, alpha=0.015
17.684010301570517
% TCN (m^2) @ t=37, gamma=0.21, alpha=0.015
0.0013544664421572816
% TCTL (m^2) @ t=38, gamma=0.21, alpha=0.015
19.2503482915789
% TCN (m^2) @ t=38, gamma=0.21, alpha=0.015
0.001192000884169243
% TCTL (m^2) @ t=39, gamma=0.21, alpha=0.015
20.817568436371673
% TCN (m^2) @ t=39, gamma=0.21, alpha=0.015
0.001026730460351583
% TCTL (m^2) @ t=40, gamma=0.21, alpha=0.015
22.315328900996654
% TCN (m^2) @ t=40, gamma=0.21, alpha=0.015
8.650542872958578E-4
% TCTL (m^2) @ t=41, gamma=0.21, alpha=0.015
23.564242091126992
% TCN (m^2) @ t=41, gamma=0.21, alpha=0.015
7.123067663011982E-4
% TCTL (m^2) @ t=42, gamma=0.21, alpha=0.015
24.436598378569556
% TCN (m^2) @ t=42, gamma=0.21, alpha=0.015
5.737822370746347E-4
% TCTL (m^2) @ t=43, gamma=0.21, alpha=0.015
24.865056000507177
% TCN (m^2) @ t=43, gamma=0.21, alpha=0.015
4.4933545322411056E-4
% TCTL (m^2) @ t=44, gamma=0.21, alpha=0.015
24.751499470496046
% TCN (m^2) @ t=44, gamma=0.21, alpha=0.015
3.425606821475482E-4
% TCTL (m^2) @ t=45, gamma=0.21, alpha=0.015
24.083286905990086
% TCN (m^2) @ t=45, gamma=0.21, alpha=0.015
2.5464653175872015E-4
% TCTL (m^2) @ t=46, gamma=0.21, alpha=0.015
22.875406890521752
% TCN (m^2) @ t=46, gamma=0.21, alpha=0.015
1.858861567677329E-4
% TCTL (m^2) @ t=47, gamma=0.21, alpha=0.015
21.33451864140168
% TCN (m^2) @ t=47, gamma=0.21, alpha=0.015
1.3220030818731352E-4
% TCTL (m^2) @ t=48, gamma=0.21, alpha=0.015
19.551253371388228
% TCN (m^2) @ t=48, gamma=0.21, alpha=0.015
9.281285401284268E-5
% TCTL (m^2) @ t=49, gamma=0.21, alpha=0.015
17.74638202492923
% TCN (m^2) @ t=49, gamma=0.21, alpha=0.015
6.472058928837842E-5
% TCTL (m^2) @ t=50, gamma=0.21, alpha=0.015
16.027165335585146
% TCN (m^2) @ t=50, gamma=0.21, alpha=0.015
4.526286535910749E-5
% TCTL (m^2) @ t=51, gamma=0.21, alpha=0.015
14.499703815583421
% TCN (m^2) @ t=51, gamma=0.21, alpha=0.015
3.135809476810572E-5
% TCTL (m^2) @ t=52, gamma=0.21, alpha=0.015
13.128185799600969
% TCN (m^2) @ t=52, gamma=0.21, alpha=0.015
2.1829921433780233E-5
% TCTL (m^2) @ t=53, gamma=0.21, alpha=0.015
11.904258232637257
% TCN (m^2) @ t=53, gamma=0.21, alpha=0.015
1.503185349112481E-5
% TCTL (m^2) @ t=54, gamma=0.21, alpha=0.015
10.791977734745995
% TCN (m^2) @ t=54, gamma=0.21, alpha=0.015
1.0413647656758097E-5
% TCTL (m^2) @ t=55, gamma=0.21, alpha=0.015
9.783188047246
% TCN (m^2) @ t=55, gamma=0.21, alpha=0.015
7.270367376524887E-6
% TCTL (m^2) @ t=56, gamma=0.21, alpha=0.015
8.857632635678222
% TCN (m^2) @ t=56, gamma=0.21, alpha=0.015
5.296157167387359E-6
% TCTL (m^2) @ t=57, gamma=0.21, alpha=0.015
8.01622179989428
% TCN (m^2) @ t=57, gamma=0.21, alpha=0.015
3.9872193835559054E-6
% TCTL (m^2) @ t=58, gamma=0.21, alpha=0.015
7.253795826144623
% TCN (m^2) @ t=58, gamma=0.21, alpha=0.015
3.096130273965217E-6
% TCTL (m^2) @ t=59, gamma=0.21, alpha=0.015
6.5632996914324835
% TCN (m^2) @ t=59, gamma=0.21, alpha=0.015
2.468388629342406E-6
% TCTL (m^2) @ t=60, gamma=0.21, alpha=0.015
5.938638233193373
% TCN (m^2) @ t=60, gamma=0.21, alpha=0.015
1.989587992392099E-6
% TCTL (m^2) @ t=61, gamma=0.21, alpha=0.015
5.373620209398138
% TCN (m^2) @ t=61, gamma=0.21, alpha=0.015
1.6353571201614558E-6
% TCTL (m^2) @ t=62, gamma=0.21, alpha=0.015
4.862499564265452
% TCN (m^2) @ t=62, gamma=0.21, alpha=0.015
1.3898327815078158E-6
% TCTL (m^2) @ t=63, gamma=0.21, alpha=0.015
4.399123771028713
% TCN (m^2) @ t=63, gamma=0.21, alpha=0.015
1.2206861991129282E-6
% TCTL (m^2) @ t=64, gamma=0.21, alpha=0.015
3.983342009964815
% TCN (m^2) @ t=64, gamma=0.21, alpha=0.015
1.107454439347612E-6
% TCTL (m^2) @ t=65, gamma=0.21, alpha=0.015
3.6217969703813617
% TCN (m^2) @ t=65, gamma=0.21, alpha=0.015
1.0412906948858972E-6
% TCTL (m^2) @ t=66, gamma=0.21, alpha=0.015
3.2922975414159503
% TCN (m^2) @ t=66, gamma=0.21, alpha=0.015
9.995844600562424E-7
% TCTL (m^2) @ t=67, gamma=0.21, alpha=0.015
2.995608767382415
% TCN (m^2) @ t=67, gamma=0.21, alpha=0.015
9.803026985777353E-7
% TCTL (m^2) @ t=68, gamma=0.21, alpha=0.015
2.7254417999104477
% TCN (m^2) @ t=68, gamma=0.21, alpha=0.015
9.804594694022894E-7
% TCTL (m^2) @ t=69, gamma=0.21, alpha=0.015
2.4707232078679446
% TCN (m^2) @ t=69, gamma=0.21, alpha=0.015
9.930356513541084E-7
% TCTL (m^2) @ t=70, gamma=0.21, alpha=0.015
2.236689243382931
% TCN (m^2) @ t=70, gamma=0.21, alpha=0.015
1.0223148097149045E-6
% TCTL (m^2) @ t=71, gamma=0.21, alpha=0.015
2.0230672311132167
% TCN (m^2) @ t=71, gamma=0.21, alpha=0.015
1.0716566236324737E-6
% TCTL (m^2) @ t=72, gamma=0.21, alpha=0.015
1.8297856381272126
% TCN (m^2) @ t=72, gamma=0.21, alpha=0.015
1.1411630198046944E-6
% TCTL (m^2) @ t=73, gamma=0.21, alpha=0.015
1.6533633035614423
% TCN (m^2) @ t=73, gamma=0.21, alpha=0.015
1.2356364539565722E-6
% TCTL (m^2) @ t=74, gamma=0.21, alpha=0.015
1.494838515468964
% TCN (m^2) @ t=74, gamma=0.21, alpha=0.015
1.353635187704135E-6
% TCTL (m^2) @ t=75, gamma=0.21, alpha=0.015
1.3501292663325009
% TCN (m^2) @ t=75, gamma=0.21, alpha=0.015
1.5059393923797397E-6
% TCTL (m^2) @ t=76, gamma=0.21, alpha=0.015
1.220464644120767
% TCN (m^2) @ t=76, gamma=0.21, alpha=0.015
1.6893228406317832E-6
% TCTL (m^2) @ t=77, gamma=0.21, alpha=0.015
1.1021082189871614
% TCN (m^2) @ t=77, gamma=0.21, alpha=0.015
1.9215849736299206E-6
% TCTL (m^2) @ t=78, gamma=0.21, alpha=0.015
0.9961870306235694
% TCN (m^2) @ t=78, gamma=0.21, alpha=0.015
2.1973973851196346E-6
% TCTL (m^2) @ t=79, gamma=0.21, alpha=0.015
0.9004725292656282
% TCN (m^2) @ t=79, gamma=0.21, alpha=0.015
2.5444035823329833E-6
% TCTL (m^2) @ t=80, gamma=0.21, alpha=0.015
0.8143985160890697
% TCN (m^2) @ t=80, gamma=0.21, alpha=0.015
2.9695131687902987E-6
% TCTL (m^2) @ t=81, gamma=0.21, alpha=0.015
0.7370452423061125
% TCN (m^2) @ t=81, gamma=0.21, alpha=0.015
3.483950292599025E-6
% TCTL (m^2) @ t=82, gamma=0.21, alpha=0.015
0.6674636251482252
% TCN (m^2) @ t=82, gamma=0.21, alpha=0.015
4.099297078902146E-6
% TCTL (m^2) @ t=83, gamma=0.21, alpha=0.015
0.6049113351065671
% TCN (m^2) @ t=83, gamma=0.21, alpha=0.015
4.87515033967319E-6
% TCTL (m^2) @ t=84, gamma=0.21, alpha=0.015
0.54839391740559
% TCN (m^2) @ t=84, gamma=0.21, alpha=0.015
5.812555376059655E-6
% TCTL (m^2) @ t=85, gamma=0.21, alpha=0.015
0.4969953693611796
% TCN (m^2) @ t=85, gamma=0.21, alpha=0.015
6.930776561580104E-6
% TCTL (m^2) @ t=86, gamma=0.21, alpha=0.015
0.4503322859995039
% TCN (m^2) @ t=86, gamma=0.21, alpha=0.015
8.287496797388076E-6
% TCTL (m^2) @ t=87, gamma=0.21, alpha=0.015
0.408638250886569
% TCN (m^2) @ t=87, gamma=0.21, alpha=0.015
9.984243221573474E-6
% TCTL (m^2) @ t=88, gamma=0.21, alpha=0.015
0.37069018506375273
% TCN (m^2) @ t=88, gamma=0.21, alpha=0.015
1.2019030098416579E-5
% TCTL (m^2) @ t=89, gamma=0.21, alpha=0.015
0.33584270661180926
% TCN (m^2) @ t=89, gamma=0.21, alpha=0.015
1.4430923809435581E-5
% TCTL (m^2) @ t=90, gamma=0.21, alpha=0.015
0.304501788633774
% TCN (m^2) @ t=90, gamma=0.21, alpha=0.015
1.7431000214495654E-5
% TCTL (m^2) @ t=91, gamma=0.21, alpha=0.015
0.2761995739271473
% TCN (m^2) @ t=91, gamma=0.21, alpha=0.015
2.1087370055273415E-5
% TCTL (m^2) @ t=92, gamma=0.21, alpha=0.015
0.2503171823762594
% TCN (m^2) @ t=92, gamma=0.21, alpha=0.015
2.5443435604885564E-5
% TCTL (m^2) @ t=93, gamma=0.21, alpha=0.015
0.22679577476945068
% TCN (m^2) @ t=93, gamma=0.21, alpha=0.015
3.070495079766247E-5
% TCTL (m^2) @ t=94, gamma=0.21, alpha=0.015
0.2056223181202853
% TCN (m^2) @ t=94, gamma=0.21, alpha=0.015
3.70943418979222E-5
% TCTL (m^2) @ t=95, gamma=0.21, alpha=0.015
0.18633145089000597
% TCN (m^2) @ t=95, gamma=0.21, alpha=0.015
4.466939879467449E-5
% TCTL (m^2) @ t=96, gamma=0.21, alpha=0.015
0.1687836130979014
% TCN (m^2) @ t=96, gamma=0.21, alpha=0.015
5.368481201971116E-5
% TCTL (m^2) @ t=97, gamma=0.21, alpha=0.015
0.15316364404663407
% TCN (m^2) @ t=97, gamma=0.21, alpha=0.015
6.470939416290965E-5
% TCTL (m^2) @ t=98, gamma=0.21, alpha=0.015
0.1391219875846017
% TCN (m^2) @ t=98, gamma=0.21, alpha=0.015
7.779449242957599E-5
% TCTL (m^2) @ t=99, gamma=0.21, alpha=0.015
0.12651225117313095
% TCN (m^2) @ t=99, gamma=0.21, alpha=0.015
9.321002006263009E-5
% TCTL (m^2) @ t=100, gamma=0.21, alpha=0.015
0.11549880064581522
% TCN (m^2) @ t=100, gamma=0.21, alpha=0.015
1.1210369426910207E-4
% TCTL (m^2) @ t=101, gamma=0.21, alpha=0.015
0.10586009207727087
% TCN (m^2) @ t=101, gamma=0.21, alpha=0.015
1.3453314701149962E-4
% TCTL (m^2) @ t=102, gamma=0.21, alpha=0.015
0.09750107613153158
% TCN (m^2) @ t=102, gamma=0.21, alpha=0.015
1.609133214688218E-4
% TCTL (m^2) @ t=103, gamma=0.21, alpha=0.015
0.09052503401914276
% TCN (m^2) @ t=103, gamma=0.21, alpha=0.015
1.927929871070838E-4
% TCTL (m^2) @ t=104, gamma=0.21, alpha=0.015
0.08486969092648888
% TCN (m^2) @ t=104, gamma=0.21, alpha=0.015
2.3077445418332116E-4
% TCTL (m^2) @ t=105, gamma=0.21, alpha=0.015
0.08045965461182684
% TCN (m^2) @ t=105, gamma=0.21, alpha=0.015
2.7538504256559635E-4
% TCTL (m^2) @ t=106, gamma=0.21, alpha=0.015
0.07736847441787201
% TCN (m^2) @ t=106, gamma=0.21, alpha=0.015
3.2840383411683225E-4
% TCTL (m^2) @ t=107, gamma=0.21, alpha=0.015
0.07571167302133935
% TCN (m^2) @ t=107, gamma=0.21, alpha=0.015
3.9199109803764545E-4
% TCTL (m^2) @ t=108, gamma=0.21, alpha=0.015
0.07549996063227996
% TCN (m^2) @ t=108, gamma=0.21, alpha=0.015
4.673552328689508E-4
% TCTL (m^2) @ t=109, gamma=0.21, alpha=0.015
0.0767591071551293
% TCN (m^2) @ t=109, gamma=0.21, alpha=0.015
5.564682376152453E-4
% TCTL (m^2) @ t=110, gamma=0.21, alpha=0.015
0.07939717877992647
% TCN (m^2) @ t=110, gamma=0.21, alpha=0.015
6.618039841916068E-4
% TCTL (m^2) @ t=111, gamma=0.21, alpha=0.015
0.08349942048522795
% TCN (m^2) @ t=111, gamma=0.21, alpha=0.015
7.856050484168931E-4
% TCTL (m^2) @ t=112, gamma=0.21, alpha=0.015
0.0890894156708762
% TCN (m^2) @ t=112, gamma=0.21, alpha=0.015
9.305191734535759E-4
% TCTL (m^2) @ t=113, gamma=0.21, alpha=0.015
0.09614822795148051
% TCN (m^2) @ t=113, gamma=0.21, alpha=0.015
0.0011001974545768898
% TCTL (m^2) @ t=114, gamma=0.21, alpha=0.015
0.10470229097449849
% TCN (m^2) @ t=114, gamma=0.21, alpha=0.015
0.001297715664751748
% TCTL (m^2) @ t=115, gamma=0.21, alpha=0.015
0.11476157590792402
% TCN (m^2) @ t=115, gamma=0.21, alpha=0.015
0.0015266848884676247
% TCTL (m^2) @ t=116, gamma=0.21, alpha=0.015
0.12642402710306622
% TCN (m^2) @ t=116, gamma=0.21, alpha=0.015
0.0017920627748942704
% TCTL (m^2) @ t=117, gamma=0.21, alpha=0.015
0.13972996829185627
% TCN (m^2) @ t=117, gamma=0.21, alpha=0.015
0.0020983954796054594
% TCTL (m^2) @ t=118, gamma=0.21, alpha=0.015
0.15472506706158587
% TCN (m^2) @ t=118, gamma=0.21, alpha=0.015
0.002450577966280493
% TCTL (m^2) @ t=119, gamma=0.21, alpha=0.015
0.17159248158679116
% TCN (m^2) @ t=119, gamma=0.21, alpha=0.015
0.002854418842576735
% TCTL (m^2) @ t=120, gamma=0.21, alpha=0.015
0.1905425919574737
% TCN (m^2) @ t=120, gamma=0.21, alpha=0.015
0.0033161639695396625
% TCTL (m^2) @ t=121, gamma=0.21, alpha=0.015
0.2117066102553811
% TCN (m^2) @ t=121, gamma=0.21, alpha=0.015
0.0038421139804220602
% TCTL (m^2) @ t=122, gamma=0.21, alpha=0.015
0.23533752122467605
% TCN (m^2) @ t=122, gamma=0.21, alpha=0.015
0.004438968004443211
% TCTL (m^2) @ t=123, gamma=0.21, alpha=0.015
0.2618177323243027
% TCN (m^2) @ t=123, gamma=0.21, alpha=0.015
0.005113476358456999
% TCTL (m^2) @ t=124, gamma=0.21, alpha=0.015
0.2914229879009021
% TCN (m^2) @ t=124, gamma=0.21, alpha=0.015
0.005873271643905192
% TCTL (m^2) @ t=125, gamma=0.21, alpha=0.015
0.32452464059227476
% TCN (m^2) @ t=125, gamma=0.21, alpha=0.015
0.00672599666572847
% TCTL (m^2) @ t=126, gamma=0.21, alpha=0.015
0.36161536251952725
% TCN (m^2) @ t=126, gamma=0.21, alpha=0.015
0.007677491249064017
% TCTL (m^2) @ t=127, gamma=0.21, alpha=0.015
0.40316361774274284
% TCN (m^2) @ t=127, gamma=0.21, alpha=0.015
0.008735572517626567
% TCTL (m^2) @ t=128, gamma=0.21, alpha=0.015
0.4497176366451334
% TCN (m^2) @ t=128, gamma=0.21, alpha=0.015
0.009907334015888869
% TCTL (m^2) @ t=129, gamma=0.21, alpha=0.015
0.501810475686198
% TCN (m^2) @ t=129, gamma=0.21, alpha=0.015
0.011198537314086383
% TCTL (m^2) @ t=130, gamma=0.21, alpha=0.015
0.560070009762708
% TCN (m^2) @ t=130, gamma=0.21, alpha=0.015
0.01261529200373569
% TCTL (m^2) @ t=131, gamma=0.21, alpha=0.015
0.6251670712608821
% TCN (m^2) @ t=131, gamma=0.21, alpha=0.015
0.014163117418743695
% TCTL (m^2) @ t=132, gamma=0.21, alpha=0.015
0.6978669615950371
% TCN (m^2) @ t=132, gamma=0.21, alpha=0.015
0.015845428181585026
% TCTL (m^2) @ t=133, gamma=0.21, alpha=0.015
0.778997628311247
% TCN (m^2) @ t=133, gamma=0.21, alpha=0.015
0.01766448621270571
% TCTL (m^2) @ t=134, gamma=0.21, alpha=0.015
0.8694159351053263
% TCN (m^2) @ t=134, gamma=0.21, alpha=0.015
0.019622184177871475
% TCTL (m^2) @ t=135, gamma=0.21, alpha=0.015
0.9701609552645245
% TCN (m^2) @ t=135, gamma=0.21, alpha=0.015
0.021717900692715994
% TCTL (m^2) @ t=136, gamma=0.21, alpha=0.015
1.0825386079821882
% TCN (m^2) @ t=136, gamma=0.21, alpha=0.015
0.02394811038652764
% TCTL (m^2) @ t=137, gamma=0.21, alpha=0.015
1.2077706299293327
% TCN (m^2) @ t=137, gamma=0.21, alpha=0.015
0.026308519247255274
% TCTL (m^2) @ t=138, gamma=0.21, alpha=0.015
1.3473223265544003
% TCN (m^2) @ t=138, gamma=0.21, alpha=0.015
0.0287908155597913
% TCTL (m^2) @ t=139, gamma=0.21, alpha=0.015
1.5030218658828853
% TCN (m^2) @ t=139, gamma=0.21, alpha=0.015
0.031374412554299715
% TCTL (m^2) @ t=140, gamma=0.21, alpha=0.015
1.6767096446928713
% TCN (m^2) @ t=140, gamma=0.21, alpha=0.015
0.03404305671554802
% TCTL (m^2) @ t=141, gamma=0.21, alpha=0.015
1.8705122045581255
% TCN (m^2) @ t=141, gamma=0.21, alpha=0.015
0.03677240188612456
% TCTL (m^2) @ t=142, gamma=0.21, alpha=0.015
2.086968032301047
% TCN (m^2) @ t=142, gamma=0.21, alpha=0.015
0.03955367755146501
% TCTL (m^2) @ t=143, gamma=0.21, alpha=0.015
2.328779114264163
% TCN (m^2) @ t=143, gamma=0.21, alpha=0.015
0.04235995522712038
% TCTL (m^2) @ t=144, gamma=0.21, alpha=0.015
2.5989808937740855
% TCN (m^2) @ t=144, gamma=0.21, alpha=0.015
0.04516471330476543
% TCTL (m^2) @ t=145, gamma=0.21, alpha=0.015
2.900943880834835
% TCN (m^2) @ t=145, gamma=0.21, alpha=0.015
0.047908259351940694
% TCTL (m^2) @ t=146, gamma=0.21, alpha=0.015
3.23825342480023
% TCN (m^2) @ t=146, gamma=0.21, alpha=0.015
0.050532551072476076
% TCTL (m^2) @ t=147, gamma=0.21, alpha=0.015
3.6147792591203096
% TCN (m^2) @ t=147, gamma=0.21, alpha=0.015
0.05299022788232873
% TCTL (m^2) @ t=148, gamma=0.21, alpha=0.015
4.03516725280833
% TCN (m^2) @ t=148, gamma=0.21, alpha=0.015
0.05522118775789232
% TCTL (m^2) @ t=149, gamma=0.21, alpha=0.015
4.504937456114478
% TCN (m^2) @ t=149, gamma=0.21, alpha=0.015
0.05716162992338806
% TCTL (m^2) @ t=150, gamma=0.21, alpha=0.015
5.029053801025335
% TCN (m^2) @ t=150, gamma=0.21, alpha=0.015
0.05873797614648606
% TCTL (m^2) @ t=151, gamma=0.21, alpha=0.015
5.6135972647469305
% TCN (m^2) @ t=151, gamma=0.21, alpha=0.015
0.05988448247048418
% TCTL (m^2) @ t=152, gamma=0.21, alpha=0.015
6.267264793023963
% TCN (m^2) @ t=152, gamma=0.21, alpha=0.015
0.060599562115016534
% TCTL (m^2) @ t=153, gamma=0.21, alpha=0.015
6.996805762138505
% TCN (m^2) @ t=153, gamma=0.21, alpha=0.015
0.060802895646303645
% TCTL (m^2) @ t=154, gamma=0.21, alpha=0.015
7.810391137369493
% TCN (m^2) @ t=154, gamma=0.21, alpha=0.015
0.06044092335577228
% TCTL (m^2) @ t=155, gamma=0.21, alpha=0.015
8.719999658659653
% TCN (m^2) @ t=155, gamma=0.21, alpha=0.015
0.05950709255123856
% TCTL (m^2) @ t=156, gamma=0.21, alpha=0.015
9.735407827563986
% TCN (m^2) @ t=156, gamma=0.21, alpha=0.015
0.05795525008998595
% TCTL (m^2) @ t=157, gamma=0.21, alpha=0.015
10.86798655459132
% TCN (m^2) @ t=157, gamma=0.21, alpha=0.015
0.05575435407509989
% TCTL (m^2) @ t=158, gamma=0.21, alpha=0.015
12.133172614171128
% TCN (m^2) @ t=158, gamma=0.21, alpha=0.015
0.053019505010703065
% TCTL (m^2) @ t=159, gamma=0.21, alpha=0.015
13.54639131011291
% TCN (m^2) @ t=159, gamma=0.21, alpha=0.015
0.04983248202666109
% TCTL (m^2) @ t=160, gamma=0.21, alpha=0.015
15.123007086035399
% TCN (m^2) @ t=160, gamma=0.21, alpha=0.015
0.046239539907684174
% TCTL (m^2) @ t=161, gamma=0.21, alpha=0.015
16.88269924014996
% TCN (m^2) @ t=161, gamma=0.21, alpha=0.015
0.042215787411116514
% TCTL (m^2) @ t=162, gamma=0.21, alpha=0.015
18.844757586485333
% TCN (m^2) @ t=162, gamma=0.21, alpha=0.015
0.03765115926254574
% TCTL (m^2) @ t=163, gamma=0.21, alpha=0.015
21.03742579113369
% TCN (m^2) @ t=163, gamma=0.21, alpha=0.015
0.03284587099942322
% TCTL (m^2) @ t=164, gamma=0.21, alpha=0.015
23.480085631294696
% TCN (m^2) @ t=164, gamma=0.21, alpha=0.015
0.028069887363020782
% TCTL (m^2) @ t=165, gamma=0.21, alpha=0.015
26.250816961649164
% TCN (m^2) @ t=165, gamma=0.21, alpha=0.015
0.023557146721408656
% TCTL (m^2) @ t=166, gamma=0.21, alpha=0.015
29.347484304625738
% TCN (m^2) @ t=166, gamma=0.21, alpha=0.015
0.01928387360064187
% TCTL (m^2) @ t=167, gamma=0.21, alpha=0.015
32.7914410154577
% TCN (m^2) @ t=167, gamma=0.21, alpha=0.015
0.015315247958089074
% TCTL (m^2) @ t=168, gamma=0.21, alpha=0.015
36.65949330592011
% TCN (m^2) @ t=168, gamma=0.21, alpha=0.015
0.011819089884171088
% TCTL (m^2) @ t=169, gamma=0.21, alpha=0.015
40.961044141338235
% TCN (m^2) @ t=169, gamma=0.21, alpha=0.015
0.008776845182146034
% TCTL (m^2) @ t=170, gamma=0.21, alpha=0.015
45.73445627876217
% TCN (m^2) @ t=170, gamma=0.21, alpha=0.015
0.00621396144807057
% TCTL (m^2) @ t=171, gamma=0.21, alpha=0.015
50.986166964626506
% TCN (m^2) @ t=171, gamma=0.21, alpha=0.015
0.004221935502391374
% TCTL (m^2) @ t=172, gamma=0.21, alpha=0.015
56.648924134978614
% TCN (m^2) @ t=172, gamma=0.21, alpha=0.015
0.002723094313052492
% TCTL (m^2) @ t=173, gamma=0.21, alpha=0.015
62.626004534291525
% TCN (m^2) @ t=173, gamma=0.21, alpha=0.015
0.0016283008874303322
% TCTL (m^2) @ t=174, gamma=0.21, alpha=0.015
67.05123427341482
% TCN (m^2) @ t=174, gamma=0.21, alpha=0.015
8.976759755266767E-4
% TCTL (m^2) @ t=175, gamma=0.21, alpha=0.015
68.97823079641961
% TCN (m^2) @ t=175, gamma=0.21, alpha=0.015
4.639099112895856E-4
% TCTL (m^2) @ t=176, gamma=0.21, alpha=0.015
67.21327043166285
% TCN (m^2) @ t=176, gamma=0.21, alpha=0.015
2.1892907507853272E-4
% TCTL (m^2) @ t=177, gamma=0.21, alpha=0.015
62.66946907674078
% TCN (m^2) @ t=177, gamma=0.21, alpha=0.015
9.293870608489027E-5
% TCTL (m^2) @ t=178, gamma=0.21, alpha=0.015
57.26894444353385
% TCN (m^2) @ t=178, gamma=0.21, alpha=0.015
3.653245241625529E-5
% TCTL (m^2) @ t=179, gamma=0.21, alpha=0.015
52.00043515289684
% TCN (m^2) @ t=179, gamma=0.21, alpha=0.015
1.2881439890756346E-5
% TCTL (m^2) @ t=180, gamma=0.21, alpha=0.015
47.081275347292056
% TCN (m^2) @ t=180, gamma=0.21, alpha=0.015
4.3515255849856425E-6
% TCTL (m^2) @ t=181, gamma=0.21, alpha=0.015
42.6008851310686
% TCN (m^2) @ t=181, gamma=0.21, alpha=0.015
1.279793423351585E-6
% TCTL (m^2) @ t=182, gamma=0.21, alpha=0.015
38.54308750765786
% TCN (m^2) @ t=182, gamma=0.21, alpha=0.015
3.2701389825240837E-7
% TCTL (m^2) @ t=183, gamma=0.21, alpha=0.015
34.874443645579895
% TCN (m^2) @ t=183, gamma=0.21, alpha=0.015
1.2483438781343935E-7
% TCTL (m^2) @ t=184, gamma=0.21, alpha=0.015
31.554566882280817
% TCN (m^2) @ t=184, gamma=0.21, alpha=0.015
4.475006269311641E-8
% TCTL (m^2) @ t=185, gamma=0.21, alpha=0.015
28.551037661257464
% TCN (m^2) @ t=185, gamma=0.21, alpha=0.015
1.5895235718889353E-8
% TCTL (m^2) @ t=186, gamma=0.21, alpha=0.015
25.834070415853926
% TCN (m^2) @ t=186, gamma=0.21, alpha=0.015
6.3786608744148055E-9
% TCTL (m^2) @ t=187, gamma=0.21, alpha=0.015
23.375035020412497
% TCN (m^2) @ t=187, gamma=0.21, alpha=0.015
2.791084660902874E-9
% TCTL (m^2) @ t=188, gamma=0.21, alpha=0.015
21.149762552334987
% TCN (m^2) @ t=188, gamma=0.21, alpha=0.015
1.4768006971666855E-9
% TCTL (m^2) @ t=189, gamma=0.21, alpha=0.015
19.136700967400564
% TCN (m^2) @ t=189, gamma=0.21, alpha=0.015
1.0581473766611992E-9
% TCTL (m^2) @ t=190, gamma=0.21, alpha=0.015
17.335001352908908
% TCN (m^2) @ t=190, gamma=0.21, alpha=0.015
9.54874437258052E-10
% TCTL (m^2) @ t=191, gamma=0.21, alpha=0.015
15.711068349592402
% TCN (m^2) @ t=191, gamma=0.21, alpha=0.015
9.6120195767659E-10
% TCTL (m^2) @ t=192, gamma=0.21, alpha=0.015
14.250893174101364
% TCN (m^2) @ t=192, gamma=0.21, alpha=0.015
1.0064443707527955E-9
% TCTL (m^2) @ t=193, gamma=0.21, alpha=0.015
12.929192799513675
% TCN (m^2) @ t=193, gamma=0.21, alpha=0.015
1.0787375994617164E-9
% TCTL (m^2) @ t=194, gamma=0.21, alpha=0.015
11.714103446079553
% TCN (m^2) @ t=194, gamma=0.21, alpha=0.015
1.1672833304861176E-9
% TCTL (m^2) @ t=195, gamma=0.21, alpha=0.015
10.603818272354602
% TCN (m^2) @ t=195, gamma=0.21, alpha=0.015
1.2700185333097814E-9
% TCTL (m^2) @ t=196, gamma=0.21, alpha=0.015
9.592050435232036
% TCN (m^2) @ t=196, gamma=0.21, alpha=0.015
1.386564739491977E-9
% TCTL (m^2) @ t=197, gamma=0.21, alpha=0.015
8.675775198498476
% TCN (m^2) @ t=197, gamma=0.21, alpha=0.015
1.516983401008009E-9
% TCTL (m^2) @ t=198, gamma=0.21, alpha=0.015
7.84613852331993
% TCN (m^2) @ t=198, gamma=0.21, alpha=0.015
1.6606055647153497E-9
% TCTL (m^2) @ t=199, gamma=0.21, alpha=0.015
7.095478181242836
% TCN (m^2) @ t=199, gamma=0.21, alpha=0.015
1.8179791647183126E-9
% TCTL (m^2) @ t=200, gamma=0.21, alpha=0.015
6.415561752371252
% TCN (m^2) @ t=200, gamma=0.21, alpha=0.015
1.989763784623896E-9
% TCTL (m^2) @ t=0, gamma=0.21, alpha=0.0175
0.9000029896612658
% TCN (m^2) @ t=0, gamma=0.21, alpha=0.0175
4.6384710317746666E-4
% TCTL (m^2) @ t=1, gamma=0.21, alpha=0.0175
0.9139510055104896
% TCN (m^2) @ t=1, gamma=0.21, alpha=0.0175
5.201033641880089E-4
% TCTL (m^2) @ t=2, gamma=0.21, alpha=0.0175
0.9381103035530884
% TCN (m^2) @ t=2, gamma=0.21, alpha=0.0175
5.800550364062557E-4
% TCTL (m^2) @ t=3, gamma=0.21, alpha=0.0175
0.9728664691808669
% TCN (m^2) @ t=3, gamma=0.21, alpha=0.0175
6.43944369778829E-4
% TCTL (m^2) @ t=4, gamma=0.21, alpha=0.0175
1.0185015709965524
% TCN (m^2) @ t=4, gamma=0.21, alpha=0.0175
7.119662378221356E-4
% TCTL (m^2) @ t=5, gamma=0.21, alpha=0.0175
1.0753467158668362
% TCN (m^2) @ t=5, gamma=0.21, alpha=0.0175
7.843803257833898E-4
% TCTL (m^2) @ t=6, gamma=0.21, alpha=0.0175
1.1438812542809127
% TCN (m^2) @ t=6, gamma=0.21, alpha=0.0175
8.615477850165E-4
% TCTL (m^2) @ t=7, gamma=0.21, alpha=0.0175
1.2248257335017154
% TCN (m^2) @ t=7, gamma=0.21, alpha=0.0175
9.439533418363325E-4
% TCTL (m^2) @ t=8, gamma=0.21, alpha=0.0175
1.3189607137919002
% TCN (m^2) @ t=8, gamma=0.21, alpha=0.0175
0.0010320764151607402
% TCTL (m^2) @ t=9, gamma=0.21, alpha=0.0175
1.4272750106811798
% TCN (m^2) @ t=9, gamma=0.21, alpha=0.0175
0.001126474151714465
% TCTL (m^2) @ t=10, gamma=0.21, alpha=0.0175
1.5510383808060315
% TCN (m^2) @ t=10, gamma=0.21, alpha=0.0175
0.0012277777249021329
% TCTL (m^2) @ t=11, gamma=0.21, alpha=0.0175
1.6916014522245424
% TCN (m^2) @ t=11, gamma=0.21, alpha=0.0175
0.001336644139906015
% TCTL (m^2) @ t=12, gamma=0.21, alpha=0.0175
1.850884053168334
% TCN (m^2) @ t=12, gamma=0.21, alpha=0.0175
0.0014535002203201182
% TCTL (m^2) @ t=13, gamma=0.21, alpha=0.0175
2.030535382388487
% TCN (m^2) @ t=13, gamma=0.21, alpha=0.0175
0.0015788321448478027
% TCTL (m^2) @ t=14, gamma=0.21, alpha=0.0175
2.2330994390740173
% TCN (m^2) @ t=14, gamma=0.21, alpha=0.0175
0.0017123065156419682
% TCTL (m^2) @ t=15, gamma=0.21, alpha=0.0175
2.4606718377754535
% TCN (m^2) @ t=15, gamma=0.21, alpha=0.0175
0.0018539719289226138
% TCTL (m^2) @ t=16, gamma=0.21, alpha=0.0175
2.716647626586613
% TCN (m^2) @ t=16, gamma=0.21, alpha=0.0175
0.002002392865166122
% TCTL (m^2) @ t=17, gamma=0.21, alpha=0.0175
3.004032191937146
% TCN (m^2) @ t=17, gamma=0.21, alpha=0.0175
0.0021563972730885487
% TCTL (m^2) @ t=18, gamma=0.21, alpha=0.0175
3.326014980332178
% TCN (m^2) @ t=18, gamma=0.21, alpha=0.0175
0.002314100375599876
% TCTL (m^2) @ t=19, gamma=0.21, alpha=0.0175
3.686361319554015
% TCN (m^2) @ t=19, gamma=0.21, alpha=0.0175
0.002473306460322374
% TCTL (m^2) @ t=20, gamma=0.21, alpha=0.0175
4.089192820305849
% TCN (m^2) @ t=20, gamma=0.21, alpha=0.0175
0.0026314304187687685
% TCTL (m^2) @ t=21, gamma=0.21, alpha=0.0175
4.5391610392832344
% TCN (m^2) @ t=21, gamma=0.21, alpha=0.0175
0.0027845354931214624
% TCTL (m^2) @ t=22, gamma=0.21, alpha=0.0175
5.041363413048348
% TCN (m^2) @ t=22, gamma=0.21, alpha=0.0175
0.002928082817189419
% TCTL (m^2) @ t=23, gamma=0.21, alpha=0.0175
5.601715161091006
% TCN (m^2) @ t=23, gamma=0.21, alpha=0.0175
0.003060360410358675
% TCTL (m^2) @ t=24, gamma=0.21, alpha=0.0175
6.2266381349468185
% TCN (m^2) @ t=24, gamma=0.21, alpha=0.0175
0.0031770362563287215
% TCTL (m^2) @ t=25, gamma=0.21, alpha=0.0175
6.923602229672852
% TCN (m^2) @ t=25, gamma=0.21, alpha=0.0175
0.0032666484815924747
% TCTL (m^2) @ t=26, gamma=0.21, alpha=0.0175
7.699819361174612
% TCN (m^2) @ t=26, gamma=0.21, alpha=0.0175
0.003326188721409577
% TCTL (m^2) @ t=27, gamma=0.21, alpha=0.0175
8.564270069230279
% TCN (m^2) @ t=27, gamma=0.21, alpha=0.0175
0.0033566837541268314