% Model:              MODEL_SC_3_0.15_II.mph
% Version:            COMSOL 5.6.0.401
% Date:               May 21 2022, 13:18
% Dimension:          0
% Nodes:              12462
% Expressions:        12462
% Description:        , 
% TCTL (m^2) @ t=0, gamma=0.165, alpha=0.015
0.8999946340665841
% TCN (m^2) @ t=0, gamma=0.165, alpha=0.015
4.638411032206806E-4
% TCTL (m^2) @ t=1, gamma=0.165, alpha=0.015
0.8903754570414038
% TCN (m^2) @ t=1, gamma=0.165, alpha=0.015
5.044645974713521E-4
% TCTL (m^2) @ t=2, gamma=0.165, alpha=0.015
0.8869457770482425
% TCN (m^2) @ t=2, gamma=0.165, alpha=0.015
5.48172793565207E-4
% TCTL (m^2) @ t=3, gamma=0.165, alpha=0.015
0.8886155055371545
% TCN (m^2) @ t=3, gamma=0.165, alpha=0.015
5.948741242425999E-4
% TCTL (m^2) @ t=4, gamma=0.165, alpha=0.015
0.8958230171790784
% TCN (m^2) @ t=4, gamma=0.165, alpha=0.015
6.454066343194899E-4
% TCTL (m^2) @ t=5, gamma=0.165, alpha=0.015
0.9084115778504971
% TCN (m^2) @ t=5, gamma=0.165, alpha=0.015
7.000849852295051E-4
% TCTL (m^2) @ t=6, gamma=0.165, alpha=0.015
0.9263038943097979
% TCN (m^2) @ t=6, gamma=0.165, alpha=0.015
7.592421927040027E-4
% TCTL (m^2) @ t=7, gamma=0.165, alpha=0.015
0.9494448282716752
% TCN (m^2) @ t=7, gamma=0.165, alpha=0.015
8.23338440486068E-4
% TCTL (m^2) @ t=8, gamma=0.165, alpha=0.015
0.9778040077442516
% TCN (m^2) @ t=8, gamma=0.165, alpha=0.015
8.928604292370719E-4
% TCTL (m^2) @ t=9, gamma=0.165, alpha=0.015
1.0113681252932647
% TCN (m^2) @ t=9, gamma=0.165, alpha=0.015
9.682393890767832E-4
% TCTL (m^2) @ t=10, gamma=0.165, alpha=0.015
1.0501873066234426
% TCN (m^2) @ t=10, gamma=0.165, alpha=0.015
0.0010499472158863848
% TCTL (m^2) @ t=11, gamma=0.165, alpha=0.015
1.0943587896342066
% TCN (m^2) @ t=11, gamma=0.165, alpha=0.015
0.0011385416083458646
% TCTL (m^2) @ t=12, gamma=0.165, alpha=0.015
1.1439490202311928
% TCN (m^2) @ t=12, gamma=0.165, alpha=0.015
0.0012345324883294556
% TCTL (m^2) @ t=13, gamma=0.165, alpha=0.015
1.1991051190300202
% TCN (m^2) @ t=13, gamma=0.165, alpha=0.015
0.0013384392646133372
% TCTL (m^2) @ t=14, gamma=0.165, alpha=0.015
1.2599033841969973
% TCN (m^2) @ t=14, gamma=0.165, alpha=0.015
0.0014507840645115073
% TCTL (m^2) @ t=15, gamma=0.165, alpha=0.015
1.326545578522245
% TCN (m^2) @ t=15, gamma=0.165, alpha=0.015
0.0015720268261045147
% TCTL (m^2) @ t=16, gamma=0.165, alpha=0.015
1.399260959436568
% TCN (m^2) @ t=16, gamma=0.165, alpha=0.015
0.001702611358741123
% TCTL (m^2) @ t=17, gamma=0.165, alpha=0.015
1.4781641972724175
% TCN (m^2) @ t=17, gamma=0.165, alpha=0.015
0.0018430479238012065
% TCTL (m^2) @ t=18, gamma=0.165, alpha=0.015
1.5636931469880744
% TCN (m^2) @ t=18, gamma=0.165, alpha=0.015
0.00199312030797894
% TCTL (m^2) @ t=19, gamma=0.165, alpha=0.015
1.6560000282202796
% TCN (m^2) @ t=19, gamma=0.165, alpha=0.015
0.002153329514829777
% TCTL (m^2) @ t=20, gamma=0.165, alpha=0.015
1.755421314276021
% TCN (m^2) @ t=20, gamma=0.165, alpha=0.015
0.0023235170706094096
% TCTL (m^2) @ t=21, gamma=0.165, alpha=0.015
1.8624149927499762
% TCN (m^2) @ t=21, gamma=0.165, alpha=0.015
0.0025029835448782773
% TCTL (m^2) @ t=22, gamma=0.165, alpha=0.015
1.9772275368567198
% TCN (m^2) @ t=22, gamma=0.165, alpha=0.015
0.002691971125851125
% TCTL (m^2) @ t=23, gamma=0.165, alpha=0.015
2.1005654249769976
% TCN (m^2) @ t=23, gamma=0.165, alpha=0.015
0.002888920926782368
% TCTL (m^2) @ t=24, gamma=0.165, alpha=0.015
2.2329905379194415
% TCN (m^2) @ t=24, gamma=0.165, alpha=0.015
0.0030928257017224076
% TCTL (m^2) @ t=25, gamma=0.165, alpha=0.015
2.3750691924480325
% TCN (m^2) @ t=25, gamma=0.165, alpha=0.015
0.0033025329792484627
% TCTL (m^2) @ t=26, gamma=0.165, alpha=0.015
2.5273106980053184
% TCN (m^2) @ t=26, gamma=0.165, alpha=0.015
0.003516612144856145
% TCTL (m^2) @ t=27, gamma=0.165, alpha=0.015
2.6903991127757174
% TCN (m^2) @ t=27, gamma=0.165, alpha=0.015
0.0037333435628195454
% TCTL (m^2) @ t=28, gamma=0.165, alpha=0.015
2.8648841089862827
% TCN (m^2) @ t=28, gamma=0.165, alpha=0.015
0.003950606923548913
% TCTL (m^2) @ t=29, gamma=0.165, alpha=0.015
3.051344425290404
% TCN (m^2) @ t=29, gamma=0.165, alpha=0.015
0.004166051688324197
% TCTL (m^2) @ t=30, gamma=0.165, alpha=0.015
3.2504528305099223
% TCN (m^2) @ t=30, gamma=0.165, alpha=0.015
0.004377156542184386
% TCTL (m^2) @ t=31, gamma=0.165, alpha=0.015
3.4631574276172685
% TCN (m^2) @ t=31, gamma=0.165, alpha=0.015
0.004581151699629819
% TCTL (m^2) @ t=32, gamma=0.165, alpha=0.015
3.690207821610331
% TCN (m^2) @ t=32, gamma=0.165, alpha=0.015
0.004774970263361936
% TCTL (m^2) @ t=33, gamma=0.165, alpha=0.015
3.9326326363795756
% TCN (m^2) @ t=33, gamma=0.165, alpha=0.015
0.004954974114487361
% TCTL (m^2) @ t=34, gamma=0.165, alpha=0.015
4.19144268043976
% TCN (m^2) @ t=34, gamma=0.165, alpha=0.015
0.005117686200351848
% TCTL (m^2) @ t=35, gamma=0.165, alpha=0.015
4.467491477338851
% TCN (m^2) @ t=35, gamma=0.165, alpha=0.015
0.0052600111021994566
% TCTL (m^2) @ t=36, gamma=0.165, alpha=0.015
4.762179165613714
% TCN (m^2) @ t=36, gamma=0.165, alpha=0.015
0.0053789704006501765
% TCTL (m^2) @ t=37, gamma=0.165, alpha=0.015
5.076411831172038
% TCN (m^2) @ t=37, gamma=0.165, alpha=0.015
0.0054712846583593235
% TCTL (m^2) @ t=38, gamma=0.165, alpha=0.015
5.411470662834611
% TCN (m^2) @ t=38, gamma=0.165, alpha=0.015
0.00553406860835268
% TCTL (m^2) @ t=39, gamma=0.165, alpha=0.015
5.7688760696473755
% TCN (m^2) @ t=39, gamma=0.165, alpha=0.015
0.0055647542062701215
% TCTL (m^2) @ t=40, gamma=0.165, alpha=0.015
6.149706028995996
% TCN (m^2) @ t=40, gamma=0.165, alpha=0.015
0.005560186712677153
% TCTL (m^2) @ t=41, gamma=0.165, alpha=0.015
6.55583272167033
% TCN (m^2) @ t=41, gamma=0.165, alpha=0.015
0.005521490014168696
% TCTL (m^2) @ t=42, gamma=0.165, alpha=0.015
6.988618957688486
% TCN (m^2) @ t=42, gamma=0.165, alpha=0.015
0.005446548331362925
% TCTL (m^2) @ t=43, gamma=0.165, alpha=0.015
7.449584663780344
% TCN (m^2) @ t=43, gamma=0.165, alpha=0.015
0.005334521188269336
% TCTL (m^2) @ t=44, gamma=0.165, alpha=0.015
7.940641614134734
% TCN (m^2) @ t=44, gamma=0.165, alpha=0.015
0.005187791521540257
% TCTL (m^2) @ t=45, gamma=0.165, alpha=0.015
8.463237115151475
% TCN (m^2) @ t=45, gamma=0.165, alpha=0.015
0.005004795207066169
% TCTL (m^2) @ t=46, gamma=0.165, alpha=0.015
9.021789837994627
% TCN (m^2) @ t=46, gamma=0.165, alpha=0.015
0.004792196185011757
% TCTL (m^2) @ t=47, gamma=0.165, alpha=0.015
9.616018271430748
% TCN (m^2) @ t=47, gamma=0.165, alpha=0.015
0.004550383813115676
% TCTL (m^2) @ t=48, gamma=0.165, alpha=0.015
10.245808225092656
% TCN (m^2) @ t=48, gamma=0.165, alpha=0.015
0.004280179750400777
% TCTL (m^2) @ t=49, gamma=0.165, alpha=0.015
10.915450572928501
% TCN (m^2) @ t=49, gamma=0.165, alpha=0.015
0.003996323636128582
% TCTL (m^2) @ t=50, gamma=0.165, alpha=0.015
11.622854922366448
% TCN (m^2) @ t=50, gamma=0.165, alpha=0.015
0.00369163473444069
% TCTL (m^2) @ t=51, gamma=0.165, alpha=0.015
12.369169680475057
% TCN (m^2) @ t=51, gamma=0.165, alpha=0.015
0.003379152407136347
% TCTL (m^2) @ t=52, gamma=0.165, alpha=0.015
13.154938040780625
% TCN (m^2) @ t=52, gamma=0.165, alpha=0.015
0.0030650442380889126
% TCTL (m^2) @ t=53, gamma=0.165, alpha=0.015
13.979259268302581
% TCN (m^2) @ t=53, gamma=0.165, alpha=0.015
0.002744204802908756
% TCTL (m^2) @ t=54, gamma=0.165, alpha=0.015
14.829228729673357
% TCN (m^2) @ t=54, gamma=0.165, alpha=0.015
0.002437145663609194
% TCTL (m^2) @ t=55, gamma=0.165, alpha=0.015
15.710641125557693
% TCN (m^2) @ t=55, gamma=0.165, alpha=0.015
0.0021346563018711097
% TCTL (m^2) @ t=56, gamma=0.165, alpha=0.015
16.60993668869613
% TCN (m^2) @ t=56, gamma=0.165, alpha=0.015
0.0018420154520645878
% TCTL (m^2) @ t=57, gamma=0.165, alpha=0.015
17.501550665418875
% TCN (m^2) @ t=57, gamma=0.165, alpha=0.015
0.001569175316264916
% TCTL (m^2) @ t=58, gamma=0.165, alpha=0.015
18.383744159845943
% TCN (m^2) @ t=58, gamma=0.165, alpha=0.015
0.0013168128359912197
% TCTL (m^2) @ t=59, gamma=0.165, alpha=0.015
19.160131249416498
% TCN (m^2) @ t=59, gamma=0.165, alpha=0.015
0.0010868506415639854
% TCTL (m^2) @ t=60, gamma=0.165, alpha=0.015
19.806462900664492
% TCN (m^2) @ t=60, gamma=0.165, alpha=0.015
8.828958473192151E-4
% TCTL (m^2) @ t=61, gamma=0.165, alpha=0.015
20.261245891121334
% TCN (m^2) @ t=61, gamma=0.165, alpha=0.015
7.062967602696722E-4
% TCTL (m^2) @ t=62, gamma=0.165, alpha=0.015
20.38811986667762
% TCN (m^2) @ t=62, gamma=0.165, alpha=0.015
5.533928840837053E-4
% TCTL (m^2) @ t=63, gamma=0.165, alpha=0.015
20.149481450331816
% TCN (m^2) @ t=63, gamma=0.165, alpha=0.015
4.2727551602388114E-4
% TCTL (m^2) @ t=64, gamma=0.165, alpha=0.015
19.60336573736901
% TCN (m^2) @ t=64, gamma=0.165, alpha=0.015
3.23136753051361E-4
% TCTL (m^2) @ t=65, gamma=0.165, alpha=0.015
18.684986503750665
% TCN (m^2) @ t=65, gamma=0.165, alpha=0.015
2.4165559929075902E-4
% TCTL (m^2) @ t=66, gamma=0.165, alpha=0.015
17.528283335998438
% TCN (m^2) @ t=66, gamma=0.165, alpha=0.015
1.7873238001567536E-4
% TCTL (m^2) @ t=67, gamma=0.165, alpha=0.015
16.234941515379376
% TCN (m^2) @ t=67, gamma=0.165, alpha=0.015
1.3090618886408068E-4
% TCTL (m^2) @ t=68, gamma=0.165, alpha=0.015
14.858347493149903
% TCN (m^2) @ t=68, gamma=0.165, alpha=0.015
9.589137109951012E-5
% TCTL (m^2) @ t=69, gamma=0.165, alpha=0.015
13.496901467265072
% TCN (m^2) @ t=69, gamma=0.165, alpha=0.015
7.056489352365574E-5
% TCTL (m^2) @ t=70, gamma=0.165, alpha=0.015
12.196801356356076
% TCN (m^2) @ t=70, gamma=0.165, alpha=0.015
5.25236811236182E-5
% TCTL (m^2) @ t=71, gamma=0.165, alpha=0.015
11.017186984982391
% TCN (m^2) @ t=71, gamma=0.165, alpha=0.015
3.9188465093279866E-5
% TCTL (m^2) @ t=72, gamma=0.165, alpha=0.015
9.945456837018533
% TCN (m^2) @ t=72, gamma=0.165, alpha=0.015
2.9712013739302044E-5
% TCTL (m^2) @ t=73, gamma=0.165, alpha=0.015
8.996358699353099
% TCN (m^2) @ t=73, gamma=0.165, alpha=0.015
2.2598920545580636E-5
% TCTL (m^2) @ t=74, gamma=0.165, alpha=0.015
8.13535339969999
% TCN (m^2) @ t=74, gamma=0.165, alpha=0.015
1.758705756302727E-5
% TCTL (m^2) @ t=75, gamma=0.165, alpha=0.015
7.358145241464305
% TCN (m^2) @ t=75, gamma=0.165, alpha=0.015
1.3646271205230319E-5
% TCTL (m^2) @ t=76, gamma=0.165, alpha=0.015
6.6553394105998205
% TCN (m^2) @ t=76, gamma=0.165, alpha=0.015
1.0757701492269782E-5
% TCTL (m^2) @ t=77, gamma=0.165, alpha=0.015
6.01736151061482
% TCN (m^2) @ t=77, gamma=0.165, alpha=0.015
8.595140616494172E-6
% TCTL (m^2) @ t=78, gamma=0.165, alpha=0.015
5.44129128813006
% TCN (m^2) @ t=78, gamma=0.165, alpha=0.015
7.0668365555052335E-6
% TCTL (m^2) @ t=79, gamma=0.165, alpha=0.015
4.9208710378962515
% TCN (m^2) @ t=79, gamma=0.165, alpha=0.015
5.9957262729937E-6
% TCTL (m^2) @ t=80, gamma=0.165, alpha=0.015
4.449050751788915
% TCN (m^2) @ t=80, gamma=0.165, alpha=0.015
5.211558546571859E-6
% TCTL (m^2) @ t=81, gamma=0.165, alpha=0.015
4.022765890907045
% TCN (m^2) @ t=81, gamma=0.165, alpha=0.015
4.669844762976524E-6
% TCTL (m^2) @ t=82, gamma=0.165, alpha=0.015
3.637858514934108
% TCN (m^2) @ t=82, gamma=0.165, alpha=0.015
4.299982968575504E-6
% TCTL (m^2) @ t=83, gamma=0.165, alpha=0.015
3.2892131191319294
% TCN (m^2) @ t=83, gamma=0.165, alpha=0.015
4.0450622288876476E-6
% TCTL (m^2) @ t=84, gamma=0.165, alpha=0.015
2.9751661869676176
% TCN (m^2) @ t=84, gamma=0.165, alpha=0.015
3.893901423180001E-6
% TCTL (m^2) @ t=85, gamma=0.165, alpha=0.015
2.691731028148497
% TCN (m^2) @ t=85, gamma=0.165, alpha=0.015
3.8136277745069056E-6
% TCTL (m^2) @ t=86, gamma=0.165, alpha=0.015
2.4356072304655627
% TCN (m^2) @ t=86, gamma=0.165, alpha=0.015
3.8007420256896942E-6
% TCTL (m^2) @ t=87, gamma=0.165, alpha=0.015
2.2041502872166867
% TCN (m^2) @ t=87, gamma=0.165, alpha=0.015
3.852999981993294E-6
% TCTL (m^2) @ t=88, gamma=0.165, alpha=0.015
1.994760846176305
% TCN (m^2) @ t=88, gamma=0.165, alpha=0.015
3.971823346252152E-6
% TCTL (m^2) @ t=89, gamma=0.165, alpha=0.015
1.8052877958300813
% TCN (m^2) @ t=89, gamma=0.165, alpha=0.015
4.164134335893727E-6
% TCTL (m^2) @ t=90, gamma=0.165, alpha=0.015
1.633861921635554
% TCN (m^2) @ t=90, gamma=0.165, alpha=0.015
4.435452892945379E-6
% TCTL (m^2) @ t=91, gamma=0.165, alpha=0.015
1.477832452340305
% TCN (m^2) @ t=91, gamma=0.165, alpha=0.015
4.796767648882255E-6
% TCTL (m^2) @ t=92, gamma=0.165, alpha=0.015
1.3356968176844264
% TCN (m^2) @ t=92, gamma=0.165, alpha=0.015
5.257555514056328E-6
% TCTL (m^2) @ t=93, gamma=0.165, alpha=0.015
1.2070726883230023
% TCN (m^2) @ t=93, gamma=0.165, alpha=0.015
5.828013651133269E-6
% TCTL (m^2) @ t=94, gamma=0.165, alpha=0.015
1.090108622068969
% TCN (m^2) @ t=94, gamma=0.165, alpha=0.015
6.536880256028725E-6
% TCTL (m^2) @ t=95, gamma=0.165, alpha=0.015
0.9850507530362047
% TCN (m^2) @ t=95, gamma=0.165, alpha=0.015
7.385524006470672E-6
% TCTL (m^2) @ t=96, gamma=0.165, alpha=0.015
0.8891788664639024
% TCN (m^2) @ t=96, gamma=0.165, alpha=0.015
8.43887358795561E-6
% TCTL (m^2) @ t=97, gamma=0.165, alpha=0.015
0.8034120411500034
% TCN (m^2) @ t=97, gamma=0.165, alpha=0.015
9.679157660070932E-6
% TCTL (m^2) @ t=98, gamma=0.165, alpha=0.015
0.7250291720056257
% TCN (m^2) @ t=98, gamma=0.165, alpha=0.015
1.12213240611794E-5
% TCTL (m^2) @ t=99, gamma=0.165, alpha=0.015
0.6550803008387794
% TCN (m^2) @ t=99, gamma=0.165, alpha=0.015
1.3021015799515367E-5
% TCTL (m^2) @ t=100, gamma=0.165, alpha=0.015
0.5919613730210089
% TCN (m^2) @ t=100, gamma=0.165, alpha=0.015
1.5198136124521203E-5
% TCTL (m^2) @ t=101, gamma=0.165, alpha=0.015
0.5353686607017163
% TCN (m^2) @ t=101, gamma=0.165, alpha=0.015
1.7775388724454635E-5
% TCTL (m^2) @ t=102, gamma=0.165, alpha=0.015
0.48446731516733565
% TCN (m^2) @ t=102, gamma=0.165, alpha=0.015
2.087929620403402E-5
% TCTL (m^2) @ t=103, gamma=0.165, alpha=0.015
0.4385265751777519
% TCN (m^2) @ t=103, gamma=0.165, alpha=0.015
2.4596168060927137E-5
% TCTL (m^2) @ t=104, gamma=0.165, alpha=0.015
0.39715162460155196
% TCN (m^2) @ t=104, gamma=0.165, alpha=0.015
2.9055988462682567E-5
% TCTL (m^2) @ t=105, gamma=0.165, alpha=0.015
0.3598947672777748
% TCN (m^2) @ t=105, gamma=0.165, alpha=0.015
3.4392066494461906E-5
% TCTL (m^2) @ t=106, gamma=0.165, alpha=0.015
0.3262861235815501
% TCN (m^2) @ t=106, gamma=0.165, alpha=0.015
4.07761376401365E-5
% TCTL (m^2) @ t=107, gamma=0.165, alpha=0.015
0.29598948626127514
% TCN (m^2) @ t=107, gamma=0.165, alpha=0.015
4.8425138122541844E-5
% TCTL (m^2) @ t=108, gamma=0.165, alpha=0.015
0.2686399237360496
% TCN (m^2) @ t=108, gamma=0.165, alpha=0.015
5.754940972951212E-5
% TCTL (m^2) @ t=109, gamma=0.165, alpha=0.015
0.24409576172816705
% TCN (m^2) @ t=109, gamma=0.165, alpha=0.015
6.847873075049515E-5
% TCTL (m^2) @ t=110, gamma=0.165, alpha=0.015
0.22201468844434769
% TCN (m^2) @ t=110, gamma=0.165, alpha=0.015
8.14658181276811E-5
% TCTL (m^2) @ t=111, gamma=0.165, alpha=0.015
0.20225876929314643
% TCN (m^2) @ t=111, gamma=0.165, alpha=0.015
9.7015967386191E-5
% TCTL (m^2) @ t=112, gamma=0.165, alpha=0.015
0.18462654671343035
% TCN (m^2) @ t=112, gamma=0.165, alpha=0.015
1.1553254012254718E-4
% TCTL (m^2) @ t=113, gamma=0.165, alpha=0.015
0.16897523234484618
% TCN (m^2) @ t=113, gamma=0.165, alpha=0.015
1.3751304312441465E-4
% TCTL (m^2) @ t=114, gamma=0.165, alpha=0.015
0.15519791199881855
% TCN (m^2) @ t=114, gamma=0.165, alpha=0.015
1.6351886818454978E-4
% TCTL (m^2) @ t=115, gamma=0.165, alpha=0.015
0.1433385409240991
% TCN (m^2) @ t=115, gamma=0.165, alpha=0.015
1.9453853172028929E-4
% TCTL (m^2) @ t=116, gamma=0.165, alpha=0.015
0.13334921054327198
% TCN (m^2) @ t=116, gamma=0.165, alpha=0.015
2.3122094461427718E-4
% TCTL (m^2) @ t=117, gamma=0.165, alpha=0.015
0.12526615670204969
% TCN (m^2) @ t=117, gamma=0.165, alpha=0.015
2.7443137570736474E-4
% TCTL (m^2) @ t=118, gamma=0.165, alpha=0.015
0.11905886175097419
% TCN (m^2) @ t=118, gamma=0.165, alpha=0.015
3.2528707972978934E-4
% TCTL (m^2) @ t=119, gamma=0.165, alpha=0.015
0.11440635443096583
% TCN (m^2) @ t=119, gamma=0.165, alpha=0.015
3.855244735719237E-4
% TCTL (m^2) @ t=120, gamma=0.165, alpha=0.015
0.11146727958216796
% TCN (m^2) @ t=120, gamma=0.165, alpha=0.015
4.562351614105938E-4
% TCTL (m^2) @ t=121, gamma=0.165, alpha=0.015
0.11024522701486653
% TCN (m^2) @ t=121, gamma=0.165, alpha=0.015
5.389076694390523E-4
% TCTL (m^2) @ t=122, gamma=0.165, alpha=0.015
0.11054923743663213
% TCN (m^2) @ t=122, gamma=0.165, alpha=0.015
6.364313072101822E-4
% TCTL (m^2) @ t=123, gamma=0.165, alpha=0.015
0.11212785965618799
% TCN (m^2) @ t=123, gamma=0.165, alpha=0.015
7.516644315892871E-4
% TCTL (m^2) @ t=124, gamma=0.165, alpha=0.015
0.11503574022081056
% TCN (m^2) @ t=124, gamma=0.165, alpha=0.015
8.855398951729779E-4
% TCTL (m^2) @ t=125, gamma=0.165, alpha=0.015
0.11919438376506644
% TCN (m^2) @ t=125, gamma=0.165, alpha=0.015
0.0010399078702874264
% TCTL (m^2) @ t=126, gamma=0.165, alpha=0.015
0.12451135664264815
% TCN (m^2) @ t=126, gamma=0.165, alpha=0.015
0.0012204089550066515
% TCTL (m^2) @ t=127, gamma=0.165, alpha=0.015
0.13090453911449096
% TCN (m^2) @ t=127, gamma=0.165, alpha=0.015
0.0014298789467318595
% TCTL (m^2) @ t=128, gamma=0.165, alpha=0.015
0.1382959560533446
% TCN (m^2) @ t=128, gamma=0.165, alpha=0.015
0.0016700265423650108
% TCTL (m^2) @ t=129, gamma=0.165, alpha=0.015
0.1466040134176032
% TCN (m^2) @ t=129, gamma=0.165, alpha=0.015
0.0019435445792677464
% TCTL (m^2) @ t=130, gamma=0.165, alpha=0.015
0.15592531416676128
% TCN (m^2) @ t=130, gamma=0.165, alpha=0.015
0.002262558053486463
% TCTL (m^2) @ t=131, gamma=0.165, alpha=0.015
0.16613908813631373
% TCN (m^2) @ t=131, gamma=0.165, alpha=0.015
0.0026276861681153243
% TCTL (m^2) @ t=132, gamma=0.165, alpha=0.015
0.17718520678048597
% TCN (m^2) @ t=132, gamma=0.165, alpha=0.015
0.003042757952268179
% TCTL (m^2) @ t=133, gamma=0.165, alpha=0.015
0.18905486970115762
% TCN (m^2) @ t=133, gamma=0.165, alpha=0.015
0.003513650964069997
% TCTL (m^2) @ t=134, gamma=0.165, alpha=0.015
0.20198651228287054
% TCN (m^2) @ t=134, gamma=0.165, alpha=0.015
0.004055637670771111
% TCTL (m^2) @ t=135, gamma=0.165, alpha=0.015
0.21583939802466373
% TCN (m^2) @ t=135, gamma=0.165, alpha=0.015
0.004669582085599307
% TCTL (m^2) @ t=136, gamma=0.165, alpha=0.015
0.23061038991652005
% TCN (m^2) @ t=136, gamma=0.165, alpha=0.015
0.005361576974267987
% TCTL (m^2) @ t=137, gamma=0.165, alpha=0.015
0.24640470706519435
% TCN (m^2) @ t=137, gamma=0.165, alpha=0.015
0.0061423673954301445
% TCTL (m^2) @ t=138, gamma=0.165, alpha=0.015
0.2634238872045175
% TCN (m^2) @ t=138, gamma=0.165, alpha=0.015
0.007026833868495787
% TCTL (m^2) @ t=139, gamma=0.165, alpha=0.015
0.28160553832990654
% TCN (m^2) @ t=139, gamma=0.165, alpha=0.015
0.00801852503337279
% TCTL (m^2) @ t=140, gamma=0.165, alpha=0.015
0.30099556635418434
% TCN (m^2) @ t=140, gamma=0.165, alpha=0.015
0.009125639324106632
% TCTL (m^2) @ t=141, gamma=0.165, alpha=0.015
0.3216533439727669
% TCN (m^2) @ t=141, gamma=0.165, alpha=0.015
0.010362229020089746
% TCTL (m^2) @ t=142, gamma=0.165, alpha=0.015
0.34363667572190726
% TCN (m^2) @ t=142, gamma=0.165, alpha=0.015
0.011741664741143836
% TCTL (m^2) @ t=143, gamma=0.165, alpha=0.015
0.3669946077193863
% TCN (m^2) @ t=143, gamma=0.165, alpha=0.015
0.013273509929923936
% TCTL (m^2) @ t=144, gamma=0.165, alpha=0.015
0.39178242588324685
% TCN (m^2) @ t=144, gamma=0.165, alpha=0.015
0.014970040393784391
% TCTL (m^2) @ t=145, gamma=0.165, alpha=0.015
0.41811484514841146
% TCN (m^2) @ t=145, gamma=0.165, alpha=0.015
0.016840955216399556
% TCTL (m^2) @ t=146, gamma=0.165, alpha=0.015
0.44606162275839023
% TCN (m^2) @ t=146, gamma=0.165, alpha=0.015
0.01889893514213998
% TCTL (m^2) @ t=147, gamma=0.165, alpha=0.015
0.47569950648911136
% TCN (m^2) @ t=147, gamma=0.165, alpha=0.015
0.021156876436585627
% TCTL (m^2) @ t=148, gamma=0.165, alpha=0.015
0.5071233188869175
% TCN (m^2) @ t=148, gamma=0.165, alpha=0.015
0.023627344558387886
% TCTL (m^2) @ t=149, gamma=0.165, alpha=0.015
0.5405588470979494
% TCN (m^2) @ t=149, gamma=0.165, alpha=0.015
0.02631732936691953
% TCTL (m^2) @ t=150, gamma=0.165, alpha=0.015
0.5760946016256014
% TCN (m^2) @ t=150, gamma=0.165, alpha=0.015
0.029240807320187308
% TCTL (m^2) @ t=151, gamma=0.165, alpha=0.015
0.6138805256875194
% TCN (m^2) @ t=151, gamma=0.165, alpha=0.015
0.03240943557449336
% TCTL (m^2) @ t=152, gamma=0.165, alpha=0.015
0.6540763105503038
% TCN (m^2) @ t=152, gamma=0.165, alpha=0.015
0.035832100133884784
% TCTL (m^2) @ t=153, gamma=0.165, alpha=0.015
0.6968488669375197
% TCN (m^2) @ t=153, gamma=0.165, alpha=0.015
0.03951036715721635
% TCTL (m^2) @ t=154, gamma=0.165, alpha=0.015
0.7423820750539512
% TCN (m^2) @ t=154, gamma=0.165, alpha=0.015
0.04345602231071534
% TCTL (m^2) @ t=155, gamma=0.165, alpha=0.015
0.7908685878324512
% TCN (m^2) @ t=155, gamma=0.165, alpha=0.015
0.047676325600219685
% TCTL (m^2) @ t=156, gamma=0.165, alpha=0.015
0.8425157531610663
% TCN (m^2) @ t=156, gamma=0.165, alpha=0.015
0.052171576887915086
% TCTL (m^2) @ t=157, gamma=0.165, alpha=0.015
0.8975432642476064
% TCN (m^2) @ t=157, gamma=0.165, alpha=0.015
0.05693914087486324
% TCTL (m^2) @ t=158, gamma=0.165, alpha=0.015
0.9561773693162113
% TCN (m^2) @ t=158, gamma=0.165, alpha=0.015
0.06198336603136901
% TCTL (m^2) @ t=159, gamma=0.165, alpha=0.015
1.0186577848184988
% TCN (m^2) @ t=159, gamma=0.165, alpha=0.015
0.06730374209844037
% TCTL (m^2) @ t=160, gamma=0.165, alpha=0.015
1.0851810932048989
% TCN (m^2) @ t=160, gamma=0.165, alpha=0.015
0.07288221980895913
% TCTL (m^2) @ t=161, gamma=0.165, alpha=0.015
1.1559846977671124
% TCN (m^2) @ t=161, gamma=0.165, alpha=0.015
0.07870823808679381
% TCTL (m^2) @ t=162, gamma=0.165, alpha=0.015
1.231327315919474
% TCN (m^2) @ t=162, gamma=0.165, alpha=0.015
0.08477290903342738
% TCTL (m^2) @ t=163, gamma=0.165, alpha=0.015
1.3114637007490952
% TCN (m^2) @ t=163, gamma=0.165, alpha=0.015
0.09106148234359526
% TCTL (m^2) @ t=164, gamma=0.165, alpha=0.015
1.3969158225874285
% TCN (m^2) @ t=164, gamma=0.165, alpha=0.015
0.09753686379051099
% TCTL (m^2) @ t=165, gamma=0.165, alpha=0.015
1.4879443265077443
% TCN (m^2) @ t=165, gamma=0.165, alpha=0.015
0.10418013298818828
% TCTL (m^2) @ t=166, gamma=0.165, alpha=0.015
1.5849138125565962
% TCN (m^2) @ t=166, gamma=0.165, alpha=0.015
0.11096254122032224
% TCTL (m^2) @ t=167, gamma=0.165, alpha=0.015
1.6883958432023922
% TCN (m^2) @ t=167, gamma=0.165, alpha=0.015
0.11784289134829083
% TCTL (m^2) @ t=168, gamma=0.165, alpha=0.015
1.7997629647656685
% TCN (m^2) @ t=168, gamma=0.165, alpha=0.015
0.1247446684096815
% TCTL (m^2) @ t=169, gamma=0.165, alpha=0.015
1.9190605060012196
% TCN (m^2) @ t=169, gamma=0.165, alpha=0.015
0.131657035095358
% TCTL (m^2) @ t=170, gamma=0.165, alpha=0.015
2.046826461859417
% TCN (m^2) @ t=170, gamma=0.165, alpha=0.015
0.13854402136507804
% TCTL (m^2) @ t=171, gamma=0.165, alpha=0.015
2.183498112958919
% TCN (m^2) @ t=171, gamma=0.165, alpha=0.015
0.14532863438263197
% TCTL (m^2) @ t=172, gamma=0.165, alpha=0.015
2.329443829760317
% TCN (m^2) @ t=172, gamma=0.165, alpha=0.015
0.15190581293956917
% TCTL (m^2) @ t=173, gamma=0.165, alpha=0.015
2.485250347039706
% TCN (m^2) @ t=173, gamma=0.165, alpha=0.015
0.15825943962129502
% TCTL (m^2) @ t=174, gamma=0.165, alpha=0.015
2.6514254393668386
% TCN (m^2) @ t=174, gamma=0.165, alpha=0.015
0.1643345248871378
% TCTL (m^2) @ t=175, gamma=0.165, alpha=0.015
2.8291519012392996
% TCN (m^2) @ t=175, gamma=0.165, alpha=0.015
0.16998593927515893
% TCTL (m^2) @ t=176, gamma=0.165, alpha=0.015
3.0187569345351837
% TCN (m^2) @ t=176, gamma=0.165, alpha=0.015
0.17518280632274486
% TCTL (m^2) @ t=177, gamma=0.165, alpha=0.015
3.220852775501321
% TCN (m^2) @ t=177, gamma=0.165, alpha=0.015
0.1798561870234986
% TCTL (m^2) @ t=178, gamma=0.165, alpha=0.015
3.4366183516944995
% TCN (m^2) @ t=178, gamma=0.165, alpha=0.015
0.18391019135975462
% TCTL (m^2) @ t=179, gamma=0.165, alpha=0.015
3.667046351990607
% TCN (m^2) @ t=179, gamma=0.165, alpha=0.015
0.18725778655357983
% TCTL (m^2) @ t=180, gamma=0.165, alpha=0.015
3.912712022428388
% TCN (m^2) @ t=180, gamma=0.165, alpha=0.015
0.18983179279886492
% TCTL (m^2) @ t=181, gamma=0.165, alpha=0.015
4.174619306460549
% TCN (m^2) @ t=181, gamma=0.165, alpha=0.015
0.1915768853954874
% TCTL (m^2) @ t=182, gamma=0.165, alpha=0.015
4.45456721199304
% TCN (m^2) @ t=182, gamma=0.165, alpha=0.015
0.19252164640314168
% TCTL (m^2) @ t=183, gamma=0.165, alpha=0.015
4.753127527889745
% TCN (m^2) @ t=183, gamma=0.165, alpha=0.015
0.1925651438868014
% TCTL (m^2) @ t=184, gamma=0.165, alpha=0.015
5.071308514757857
% TCN (m^2) @ t=184, gamma=0.165, alpha=0.015
0.1916525087552528
% TCTL (m^2) @ t=185, gamma=0.165, alpha=0.015
5.411203696368789
% TCN (m^2) @ t=185, gamma=0.165, alpha=0.015
0.1896866906160439
% TCTL (m^2) @ t=186, gamma=0.165, alpha=0.015
5.773905082554637
% TCN (m^2) @ t=186, gamma=0.165, alpha=0.015
0.18660956526768144
% TCTL (m^2) @ t=187, gamma=0.165, alpha=0.015
6.160518821501108
% TCN (m^2) @ t=187, gamma=0.165, alpha=0.015
0.1823624589883591
% TCTL (m^2) @ t=188, gamma=0.165, alpha=0.015
6.575003446323939
% TCN (m^2) @ t=188, gamma=0.165, alpha=0.015
0.1770522649574586
% TCTL (m^2) @ t=189, gamma=0.165, alpha=0.015
7.020295528512914
% TCN (m^2) @ t=189, gamma=0.165, alpha=0.015
0.17088699918896783
% TCTL (m^2) @ t=190, gamma=0.165, alpha=0.015
7.493466689275524
% TCN (m^2) @ t=190, gamma=0.165, alpha=0.015
0.1637197654491298
% TCTL (m^2) @ t=191, gamma=0.165, alpha=0.015
7.998215299734456
% TCN (m^2) @ t=191, gamma=0.165, alpha=0.015
0.15572582885081027
% TCTL (m^2) @ t=192, gamma=0.165, alpha=0.015
8.540866467459068
% TCN (m^2) @ t=192, gamma=0.165, alpha=0.015
0.14720493505372043
% TCTL (m^2) @ t=193, gamma=0.165, alpha=0.015
9.117098653778587
% TCN (m^2) @ t=193, gamma=0.165, alpha=0.015
0.13795228715193805
% TCTL (m^2) @ t=194, gamma=0.165, alpha=0.015
9.730933639018756
% TCN (m^2) @ t=194, gamma=0.165, alpha=0.015
0.12815231334785937
% TCTL (m^2) @ t=195, gamma=0.165, alpha=0.015
10.3918197720771
% TCN (m^2) @ t=195, gamma=0.165, alpha=0.015
0.11823828991757296
% TCTL (m^2) @ t=196, gamma=0.165, alpha=0.015
11.093734465418487
% TCN (m^2) @ t=196, gamma=0.165, alpha=0.015
0.10793403693504702
% TCTL (m^2) @ t=197, gamma=0.165, alpha=0.015
11.840914580935504
% TCN (m^2) @ t=197, gamma=0.165, alpha=0.015
0.09743589720002954
% TCTL (m^2) @ t=198, gamma=0.165, alpha=0.015
12.647211400623068
% TCN (m^2) @ t=198, gamma=0.165, alpha=0.015
0.08738576076131271
% TCTL (m^2) @ t=199, gamma=0.165, alpha=0.015
13.504282109669266
% TCN (m^2) @ t=199, gamma=0.165, alpha=0.015
0.07739700854575679
% TCTL (m^2) @ t=200, gamma=0.165, alpha=0.015
14.415784474121054
% TCN (m^2) @ t=200, gamma=0.165, alpha=0.015
0.06760038142583681
% TCTL (m^2) @ t=0, gamma=0.165, alpha=0.0175
0.8999946343544196
% TCN (m^2) @ t=0, gamma=0.165, alpha=0.0175
4.638471033738521E-4
% TCTL (m^2) @ t=1, gamma=0.165, alpha=0.0175
0.8918004488931506
% TCN (m^2) @ t=1, gamma=0.165, alpha=0.0175
5.212765126021104E-4
% TCTL (m^2) @ t=2, gamma=0.165, alpha=0.0175
0.8920876015043011
% TCN (m^2) @ t=2, gamma=0.165, alpha=0.0175
5.849405461752979E-4
% TCTL (m^2) @ t=3, gamma=0.165, alpha=0.0175
0.8992347902898407
% TCN (m^2) @ t=3, gamma=0.165, alpha=0.0175
6.54456996492042E-4
% TCTL (m^2) @ t=4, gamma=0.165, alpha=0.0175
0.9136472701220248
% TCN (m^2) @ t=4, gamma=0.165, alpha=0.0175
7.312944192042848E-4
% TCTL (m^2) @ t=5, gamma=0.165, alpha=0.0175
0.9349788554373061
% TCN (m^2) @ t=5, gamma=0.165, alpha=0.0175
8.159832958991351E-4
% TCTL (m^2) @ t=6, gamma=0.165, alpha=0.0175
0.9630054377989946
% TCN (m^2) @ t=6, gamma=0.165, alpha=0.0175
9.091226986015674E-4
% TCTL (m^2) @ t=7, gamma=0.165, alpha=0.0175
0.997503591528907
% TCN (m^2) @ t=7, gamma=0.165, alpha=0.0175
0.0010115696388588412
% TCTL (m^2) @ t=8, gamma=0.165, alpha=0.0175
1.0382947627811143
% TCN (m^2) @ t=8, gamma=0.165, alpha=0.0175
0.0011242823618555235
% TCTL (m^2) @ t=9, gamma=0.165, alpha=0.0175
1.0853090484346593
% TCN (m^2) @ t=9, gamma=0.165, alpha=0.0175
0.001248334577083641
% TCTL (m^2) @ t=10, gamma=0.165, alpha=0.0175
1.1384637425951598
% TCN (m^2) @ t=10, gamma=0.165, alpha=0.0175
0.0013846412129102088
% TCTL (m^2) @ t=11, gamma=0.165, alpha=0.0175
1.1977378712822695
% TCN (m^2) @ t=11, gamma=0.165, alpha=0.0175
0.0015342560437924101
% TCTL (m^2) @ t=12, gamma=0.165, alpha=0.0175
1.2632120058018863
% TCN (m^2) @ t=12, gamma=0.165, alpha=0.0175
0.0016983632307263773
% TCTL (m^2) @ t=13, gamma=0.165, alpha=0.0175
1.3348255905289546
% TCN (m^2) @ t=13, gamma=0.165, alpha=0.0175
0.0018779715165616003
% TCTL (m^2) @ t=14, gamma=0.165, alpha=0.0175
1.4129178066227672
% TCN (m^2) @ t=14, gamma=0.165, alpha=0.0175
0.002074501259700107
% TCTL (m^2) @ t=15, gamma=0.165, alpha=0.0175
1.4975696736089428
% TCN (m^2) @ t=15, gamma=0.165, alpha=0.0175
0.0022891141860141694
% TCTL (m^2) @ t=16, gamma=0.165, alpha=0.0175
1.588943933650145
% TCN (m^2) @ t=16, gamma=0.165, alpha=0.0175
0.0025228534910376656
% TCTL (m^2) @ t=17, gamma=0.165, alpha=0.0175
1.6875286651261463
% TCN (m^2) @ t=17, gamma=0.165, alpha=0.0175
0.0027764525192788144
% TCTL (m^2) @ t=18, gamma=0.165, alpha=0.0175
1.7934333474323143
% TCN (m^2) @ t=18, gamma=0.165, alpha=0.0175
0.0030510949324252332
% TCTL (m^2) @ t=19, gamma=0.165, alpha=0.0175
1.907129316163203
% TCN (m^2) @ t=19, gamma=0.165, alpha=0.0175
0.0033463953536781253
% TCTL (m^2) @ t=20, gamma=0.165, alpha=0.0175
2.029004136952119
% TCN (m^2) @ t=20, gamma=0.165, alpha=0.0175
0.003662463194557879
% TCTL (m^2) @ t=21, gamma=0.165, alpha=0.0175
2.1593986249629746
% TCN (m^2) @ t=21, gamma=0.165, alpha=0.0175
0.003999721609073904
% TCTL (m^2) @ t=22, gamma=0.165, alpha=0.0175
2.2993212338874756
% TCN (m^2) @ t=22, gamma=0.165, alpha=0.0175
0.004355029977609858
% TCTL (m^2) @ t=23, gamma=0.165, alpha=0.0175
2.449340890108633
% TCN (m^2) @ t=23, gamma=0.165, alpha=0.0175
0.00472757154945254
% TCTL (m^2) @ t=24, gamma=0.165, alpha=0.0175
2.61002843911716
% TCN (m^2) @ t=24, gamma=0.165, alpha=0.0175
0.0051151862699105296