% Model:              MODEL_SC_3_0.15_II.mph
% Version:            COMSOL 5.6.0.401
% Date:               May 21 2022, 13:14
% Dimension:          0
% Nodes:              12462
% Expressions:        12462
% Description:        , 
% TCTL (m^2) @ t=0, gamma=0.1475, alpha=0.015
0.8999913848425408
% TCN (m^2) @ t=0, gamma=0.1475, alpha=0.015
4.6384110329704853E-4
% TCTL (m^2) @ t=1, gamma=0.1475, alpha=0.015
0.882059059184913
% TCN (m^2) @ t=1, gamma=0.1475, alpha=0.015
5.048859954326678E-4
% TCTL (m^2) @ t=2, gamma=0.1475, alpha=0.015
0.8701180663847842
% TCN (m^2) @ t=2, gamma=0.1475, alpha=0.015
5.49904368939037E-4
% TCTL (m^2) @ t=3, gamma=0.1475, alpha=0.015
0.8627282725441447
% TCN (m^2) @ t=3, gamma=0.1475, alpha=0.015
5.985450067787512E-4
% TCTL (m^2) @ t=4, gamma=0.1475, alpha=0.015
0.8601843566199053
% TCN (m^2) @ t=4, gamma=0.1475, alpha=0.015
6.518621512320219E-4
% TCTL (m^2) @ t=5, gamma=0.1475, alpha=0.015
0.8623864841487056
% TCN (m^2) @ t=5, gamma=0.1475, alpha=0.015
7.103689331345872E-4
% TCTL (m^2) @ t=6, gamma=0.1475, alpha=0.015
0.8690838474979812
% TCN (m^2) @ t=6, gamma=0.1475, alpha=0.015
7.744049057625906E-4
% TCTL (m^2) @ t=7, gamma=0.1475, alpha=0.015
0.880031396962889
% TCN (m^2) @ t=7, gamma=0.1475, alpha=0.015
8.447497628018359E-4
% TCTL (m^2) @ t=8, gamma=0.1475, alpha=0.015
0.8951295739827068
% TCN (m^2) @ t=8, gamma=0.1475, alpha=0.015
9.217592151778281E-4
% TCTL (m^2) @ t=9, gamma=0.1475, alpha=0.015
0.914190345262299
% TCN (m^2) @ t=9, gamma=0.1475, alpha=0.015
0.0010060770799708025
% TCTL (m^2) @ t=10, gamma=0.1475, alpha=0.015
0.9370204064568375
% TCN (m^2) @ t=10, gamma=0.1475, alpha=0.015
0.0010983984734773005
% TCTL (m^2) @ t=11, gamma=0.1475, alpha=0.015
0.9635229608825777
% TCN (m^2) @ t=11, gamma=0.1475, alpha=0.015
0.0011993438167349712
% TCTL (m^2) @ t=12, gamma=0.1475, alpha=0.015
0.9936071250684213
% TCN (m^2) @ t=12, gamma=0.1475, alpha=0.015
0.0013097489885705814
% TCTL (m^2) @ t=13, gamma=0.1475, alpha=0.015
1.0271540845089495
% TCN (m^2) @ t=13, gamma=0.1475, alpha=0.015
0.0014303308835824213
% TCTL (m^2) @ t=14, gamma=0.1475, alpha=0.015
1.0641140875349442
% TCN (m^2) @ t=14, gamma=0.1475, alpha=0.015
0.001561908913091009
% TCTL (m^2) @ t=15, gamma=0.1475, alpha=0.015
1.1044071239350588
% TCN (m^2) @ t=15, gamma=0.1475, alpha=0.015
0.0017052674974254458
% TCTL (m^2) @ t=16, gamma=0.1475, alpha=0.015
1.1479368753301096
% TCN (m^2) @ t=16, gamma=0.1475, alpha=0.015
0.0018611721981424277
% TCTL (m^2) @ t=17, gamma=0.1475, alpha=0.015
1.1948043447877208
% TCN (m^2) @ t=17, gamma=0.1475, alpha=0.015
0.002030455709916444
% TCTL (m^2) @ t=18, gamma=0.1475, alpha=0.015
1.2449401203204482
% TCN (m^2) @ t=18, gamma=0.1475, alpha=0.015
0.0022139008394486915
% TCTL (m^2) @ t=19, gamma=0.1475, alpha=0.015
1.298297489108153
% TCN (m^2) @ t=19, gamma=0.1475, alpha=0.015
0.0024122905843741325
% TCTL (m^2) @ t=20, gamma=0.1475, alpha=0.015
1.3550771003303004
% TCN (m^2) @ t=20, gamma=0.1475, alpha=0.015
0.0026259144191824943
% TCTL (m^2) @ t=21, gamma=0.1475, alpha=0.015
1.41521741594124
% TCN (m^2) @ t=21, gamma=0.1475, alpha=0.015
0.0028556207635598977
% TCTL (m^2) @ t=22, gamma=0.1475, alpha=0.015
1.4787578012306501
% TCN (m^2) @ t=22, gamma=0.1475, alpha=0.015
0.003101954510287497
% TCTL (m^2) @ t=23, gamma=0.1475, alpha=0.015
1.5459094856653977
% TCN (m^2) @ t=23, gamma=0.1475, alpha=0.015
0.0033643409540175884
% TCTL (m^2) @ t=24, gamma=0.1475, alpha=0.015
1.6166719420145372
% TCN (m^2) @ t=24, gamma=0.1475, alpha=0.015
0.0036435848647912274
% TCTL (m^2) @ t=25, gamma=0.1475, alpha=0.015
1.691171453929025
% TCN (m^2) @ t=25, gamma=0.1475, alpha=0.015
0.003939692987212739
% TCTL (m^2) @ t=26, gamma=0.1475, alpha=0.015
1.7697783953826058
% TCN (m^2) @ t=26, gamma=0.1475, alpha=0.015
0.004251197757462679
% TCTL (m^2) @ t=27, gamma=0.1475, alpha=0.015
1.8526386794746812
% TCN (m^2) @ t=27, gamma=0.1475, alpha=0.015
0.004577987358045625
% TCTL (m^2) @ t=28, gamma=0.1475, alpha=0.015
1.9399547881609478
% TCN (m^2) @ t=28, gamma=0.1475, alpha=0.015
0.004919251064014564
% TCTL (m^2) @ t=29, gamma=0.1475, alpha=0.015
2.031846377271771
% TCN (m^2) @ t=29, gamma=0.1475, alpha=0.015
0.005273963791546777
% TCTL (m^2) @ t=30, gamma=0.1475, alpha=0.015
2.1285815245326427
% TCN (m^2) @ t=30, gamma=0.1475, alpha=0.015
0.00564093254979427
% TCTL (m^2) @ t=31, gamma=0.1475, alpha=0.015
2.230309724771434
% TCN (m^2) @ t=31, gamma=0.1475, alpha=0.015
0.006018373019347352
% TCTL (m^2) @ t=32, gamma=0.1475, alpha=0.015
2.3371167481509976
% TCN (m^2) @ t=32, gamma=0.1475, alpha=0.015
0.006403959118591307
% TCTL (m^2) @ t=33, gamma=0.1475, alpha=0.015
2.449195221720808
% TCN (m^2) @ t=33, gamma=0.1475, alpha=0.015
0.0067956007842720715
% TCTL (m^2) @ t=34, gamma=0.1475, alpha=0.015
2.566810203856645
% TCN (m^2) @ t=34, gamma=0.1475, alpha=0.015
0.007190675498925195
% TCTL (m^2) @ t=35, gamma=0.1475, alpha=0.015
2.690245175679247
% TCN (m^2) @ t=35, gamma=0.1475, alpha=0.015
0.007586261415706789
% TCTL (m^2) @ t=36, gamma=0.1475, alpha=0.015
2.8197097877408757
% TCN (m^2) @ t=36, gamma=0.1475, alpha=0.015
0.007979177126944213
% TCTL (m^2) @ t=37, gamma=0.1475, alpha=0.015
2.9555094710984715
% TCN (m^2) @ t=37, gamma=0.1475, alpha=0.015
0.00836577337759062
% TCTL (m^2) @ t=38, gamma=0.1475, alpha=0.015
3.097952671943781
% TCN (m^2) @ t=38, gamma=0.1475, alpha=0.015
0.008742141461968741
% TCTL (m^2) @ t=39, gamma=0.1475, alpha=0.015
3.2473557192928393
% TCN (m^2) @ t=39, gamma=0.1475, alpha=0.015
0.009104096406733583
% TCTL (m^2) @ t=40, gamma=0.1475, alpha=0.015
3.4040444341040823
% TCN (m^2) @ t=40, gamma=0.1475, alpha=0.015
0.009448443143376669
% TCTL (m^2) @ t=41, gamma=0.1475, alpha=0.015
3.568375611480864
% TCN (m^2) @ t=41, gamma=0.1475, alpha=0.015
0.009770891297561025
% TCTL (m^2) @ t=42, gamma=0.1475, alpha=0.015
3.7407239833934307
% TCN (m^2) @ t=42, gamma=0.1475, alpha=0.015
0.010067034445504715
% TCTL (m^2) @ t=43, gamma=0.1475, alpha=0.015
3.921521659617597
% TCN (m^2) @ t=43, gamma=0.1475, alpha=0.015
0.01033159719715071
% TCTL (m^2) @ t=44, gamma=0.1475, alpha=0.015
4.111115875745881
% TCN (m^2) @ t=44, gamma=0.1475, alpha=0.015
0.010560558131603146
% TCTL (m^2) @ t=45, gamma=0.1475, alpha=0.015
4.309898837896203
% TCN (m^2) @ t=45, gamma=0.1475, alpha=0.015
0.01074985519088258
% TCTL (m^2) @ t=46, gamma=0.1475, alpha=0.015
4.518415253558485
% TCN (m^2) @ t=46, gamma=0.1475, alpha=0.015
0.010898592638892365
% TCTL (m^2) @ t=47, gamma=0.1475, alpha=0.015
4.737022527922057
% TCN (m^2) @ t=47, gamma=0.1475, alpha=0.015
0.011001985860601155
% TCTL (m^2) @ t=48, gamma=0.1475, alpha=0.015
4.966185590739203
% TCN (m^2) @ t=48, gamma=0.1475, alpha=0.015
0.011057056961356827
% TCTL (m^2) @ t=49, gamma=0.1475, alpha=0.015
5.2065310996155185
% TCN (m^2) @ t=49, gamma=0.1475, alpha=0.015
0.011062744562056274
% TCTL (m^2) @ t=50, gamma=0.1475, alpha=0.015
5.458457905907128
% TCN (m^2) @ t=50, gamma=0.1475, alpha=0.015
0.011015287722510833
% TCTL (m^2) @ t=51, gamma=0.1475, alpha=0.015
5.7225253842775174
% TCN (m^2) @ t=51, gamma=0.1475, alpha=0.015
0.010915000853427875
% TCTL (m^2) @ t=52, gamma=0.1475, alpha=0.015
5.99941451650418
% TCN (m^2) @ t=52, gamma=0.1475, alpha=0.015
0.010766767789875432
% TCTL (m^2) @ t=53, gamma=0.1475, alpha=0.015
6.289587995257756
% TCN (m^2) @ t=53, gamma=0.1475, alpha=0.015
0.010567270087221806
% TCTL (m^2) @ t=54, gamma=0.1475, alpha=0.015
6.593709498459455
% TCN (m^2) @ t=54, gamma=0.1475, alpha=0.015
0.010315691684278462
% TCTL (m^2) @ t=55, gamma=0.1475, alpha=0.015
6.912496424082851
% TCN (m^2) @ t=55, gamma=0.1475, alpha=0.015
0.01001103825830462
% TCTL (m^2) @ t=56, gamma=0.1475, alpha=0.015
7.24648747942542
% TCN (m^2) @ t=56, gamma=0.1475, alpha=0.015
0.009652908443488723
% TCTL (m^2) @ t=57, gamma=0.1475, alpha=0.015
7.597310950082882
% TCN (m^2) @ t=57, gamma=0.1475, alpha=0.015
0.009262124616444614
% TCTL (m^2) @ t=58, gamma=0.1475, alpha=0.015
7.9651351528751615
% TCN (m^2) @ t=58, gamma=0.1475, alpha=0.015
0.008845327173685328
% TCTL (m^2) @ t=59, gamma=0.1475, alpha=0.015
8.349681783938133
% TCN (m^2) @ t=59, gamma=0.1475, alpha=0.015
0.008394589209413874
% TCTL (m^2) @ t=60, gamma=0.1475, alpha=0.015
8.753401009956768
% TCN (m^2) @ t=60, gamma=0.1475, alpha=0.015
0.007917724323518005
% TCTL (m^2) @ t=61, gamma=0.1475, alpha=0.015
9.17516509269515
% TCN (m^2) @ t=61, gamma=0.1475, alpha=0.015
0.007411136150326952
% TCTL (m^2) @ t=62, gamma=0.1475, alpha=0.015
9.616969642251878
% TCN (m^2) @ t=62, gamma=0.1475, alpha=0.015
0.0068940205010672015
% TCTL (m^2) @ t=63, gamma=0.1475, alpha=0.015
10.078490208963759
% TCN (m^2) @ t=63, gamma=0.1475, alpha=0.015
0.006363256488301242
% TCTL (m^2) @ t=64, gamma=0.1475, alpha=0.015
10.561195625661679
% TCN (m^2) @ t=64, gamma=0.1475, alpha=0.015
0.005837551488214825
% TCTL (m^2) @ t=65, gamma=0.1475, alpha=0.015
11.064962805175664
% TCN (m^2) @ t=65, gamma=0.1475, alpha=0.015
0.00531538377242853
% TCTL (m^2) @ t=66, gamma=0.1475, alpha=0.015
11.589985446329234
% TCN (m^2) @ t=66, gamma=0.1475, alpha=0.015
0.004805127503654142
% TCTL (m^2) @ t=67, gamma=0.1475, alpha=0.015
12.13624949784182
% TCN (m^2) @ t=67, gamma=0.1475, alpha=0.015
0.004306387277232353
% TCTL (m^2) @ t=68, gamma=0.1475, alpha=0.015
12.702012774773785
% TCN (m^2) @ t=68, gamma=0.1475, alpha=0.015
0.0038307491391611076
% TCTL (m^2) @ t=69, gamma=0.1475, alpha=0.015
13.28727339531861
% TCN (m^2) @ t=69, gamma=0.1475, alpha=0.015
0.003378227451739045
% TCTL (m^2) @ t=70, gamma=0.1475, alpha=0.015
13.886353337446172
% TCN (m^2) @ t=70, gamma=0.1475, alpha=0.015
0.002953253244591285
% TCTL (m^2) @ t=71, gamma=0.1475, alpha=0.015
14.499010629860477
% TCN (m^2) @ t=71, gamma=0.1475, alpha=0.015
0.0025560826719985717
% TCTL (m^2) @ t=72, gamma=0.1475, alpha=0.015
15.109065392571654
% TCN (m^2) @ t=72, gamma=0.1475, alpha=0.015
0.0021937089822512707
% TCTL (m^2) @ t=73, gamma=0.1475, alpha=0.015
15.715108160673768
% TCN (m^2) @ t=73, gamma=0.1475, alpha=0.015
0.0018667896306240927
% TCTL (m^2) @ t=74, gamma=0.1475, alpha=0.015
16.27528628520769
% TCN (m^2) @ t=74, gamma=0.1475, alpha=0.015
0.0015961801953004698
% TCTL (m^2) @ t=75, gamma=0.1475, alpha=0.015
16.8218887215933
% TCN (m^2) @ t=75, gamma=0.1475, alpha=0.015
0.0013361791952920994
% TCTL (m^2) @ t=76, gamma=0.1475, alpha=0.015
17.23721653514649
% TCN (m^2) @ t=76, gamma=0.1475, alpha=0.015
0.0011211600790294396
% TCTL (m^2) @ t=77, gamma=0.1475, alpha=0.015
17.472454092644078
% TCN (m^2) @ t=77, gamma=0.1475, alpha=0.015
9.306169400086798E-4
% TCTL (m^2) @ t=78, gamma=0.1475, alpha=0.015
17.538330907764262
% TCN (m^2) @ t=78, gamma=0.1475, alpha=0.015
7.63132884939574E-4
% TCTL (m^2) @ t=79, gamma=0.1475, alpha=0.015
17.447812699410633
% TCN (m^2) @ t=79, gamma=0.1475, alpha=0.015
6.186041421522184E-4
% TCTL (m^2) @ t=80, gamma=0.1475, alpha=0.015
17.064577901447954
% TCN (m^2) @ t=80, gamma=0.1475, alpha=0.015
4.999497089884586E-4
% TCTL (m^2) @ t=81, gamma=0.1475, alpha=0.015
16.477229877402475
% TCN (m^2) @ t=81, gamma=0.1475, alpha=0.015
3.9918345278698553E-4
% TCTL (m^2) @ t=82, gamma=0.1475, alpha=0.015
15.673264227447062
% TCN (m^2) @ t=82, gamma=0.1475, alpha=0.015
3.171647205549346E-4
% TCTL (m^2) @ t=83, gamma=0.1475, alpha=0.015
14.717848368710108
% TCN (m^2) @ t=83, gamma=0.1475, alpha=0.015
2.513832413094294E-4
% TCTL (m^2) @ t=84, gamma=0.1475, alpha=0.015
13.686897465305037
% TCN (m^2) @ t=84, gamma=0.1475, alpha=0.015
1.9917448084651567E-4
% TCTL (m^2) @ t=85, gamma=0.1475, alpha=0.015
12.640933147564617
% TCN (m^2) @ t=85, gamma=0.1475, alpha=0.015
1.581107030465982E-4
% TCTL (m^2) @ t=86, gamma=0.1475, alpha=0.015
11.604211849792186
% TCN (m^2) @ t=86, gamma=0.1475, alpha=0.015
1.2336153337555192E-4
% TCTL (m^2) @ t=87, gamma=0.1475, alpha=0.015
10.603162797578984
% TCN (m^2) @ t=87, gamma=0.1475, alpha=0.015
9.567230444263906E-5
% TCTL (m^2) @ t=88, gamma=0.1475, alpha=0.015
9.653283845290936
% TCN (m^2) @ t=88, gamma=0.1475, alpha=0.015
7.42173145893939E-5
% TCTL (m^2) @ t=89, gamma=0.1475, alpha=0.015
8.766493369621458
% TCN (m^2) @ t=89, gamma=0.1475, alpha=0.015
5.737543084447408E-5
% TCTL (m^2) @ t=90, gamma=0.1475, alpha=0.015
7.951382661125942
% TCN (m^2) @ t=90, gamma=0.1475, alpha=0.015
4.457790006946253E-5
% TCTL (m^2) @ t=91, gamma=0.1475, alpha=0.015
7.199884049056737
% TCN (m^2) @ t=91, gamma=0.1475, alpha=0.015
3.484956946785868E-5
% TCTL (m^2) @ t=92, gamma=0.1475, alpha=0.015
6.510049874810308
% TCN (m^2) @ t=92, gamma=0.1475, alpha=0.015
2.7831564857542716E-5
% TCTL (m^2) @ t=93, gamma=0.1475, alpha=0.015
5.8832243719637685
% TCN (m^2) @ t=93, gamma=0.1475, alpha=0.015
2.263743998691248E-5
% TCTL (m^2) @ t=94, gamma=0.1475, alpha=0.015
5.319285665518152
% TCN (m^2) @ t=94, gamma=0.1475, alpha=0.015
1.8796251646456007E-5
% TCTL (m^2) @ t=95, gamma=0.1475, alpha=0.015
4.80463755813124
% TCN (m^2) @ t=95, gamma=0.1475, alpha=0.015
1.578995402321921E-5
% TCTL (m^2) @ t=96, gamma=0.1475, alpha=0.015
4.339369795952676
% TCN (m^2) @ t=96, gamma=0.1475, alpha=0.015
1.3623044444240073E-5
% TCTL (m^2) @ t=97, gamma=0.1475, alpha=0.015
3.9165663884985094
% TCN (m^2) @ t=97, gamma=0.1475, alpha=0.015
1.1798185053242733E-5
% TCTL (m^2) @ t=98, gamma=0.1475, alpha=0.015
3.5372720473206387
% TCN (m^2) @ t=98, gamma=0.1475, alpha=0.015
1.0452409839448799E-5
% TCTL (m^2) @ t=99, gamma=0.1475, alpha=0.015
3.1934701819758713
% TCN (m^2) @ t=99, gamma=0.1475, alpha=0.015
9.368694202827566E-6
% TCTL (m^2) @ t=100, gamma=0.1475, alpha=0.015
2.8850537594171235
% TCN (m^2) @ t=100, gamma=0.1475, alpha=0.015
8.587316899786232E-6
% TCTL (m^2) @ t=101, gamma=0.1475, alpha=0.015
2.605869583950593
% TCN (m^2) @ t=101, gamma=0.1475, alpha=0.015
8.034997704851154E-6
% TCTL (m^2) @ t=102, gamma=0.1475, alpha=0.015
2.354520193606813
% TCN (m^2) @ t=102, gamma=0.1475, alpha=0.015
7.71078662386775E-6
% TCTL (m^2) @ t=103, gamma=0.1475, alpha=0.015
2.1275436607969236
% TCN (m^2) @ t=103, gamma=0.1475, alpha=0.015
7.587663162636825E-6
% TCTL (m^2) @ t=104, gamma=0.1475, alpha=0.015
1.9236170406239437
% TCN (m^2) @ t=104, gamma=0.1475, alpha=0.015
7.681822873656538E-6
% TCTL (m^2) @ t=105, gamma=0.1475, alpha=0.015
1.7397921299770889
% TCN (m^2) @ t=105, gamma=0.1475, alpha=0.015
7.996317235343766E-6
% TCTL (m^2) @ t=106, gamma=0.1475, alpha=0.015
1.5740737061747585
% TCN (m^2) @ t=106, gamma=0.1475, alpha=0.015
8.505899600229295E-6
% TCTL (m^2) @ t=107, gamma=0.1475, alpha=0.015
1.4242454082595126
% TCN (m^2) @ t=107, gamma=0.1475, alpha=0.015
9.200732022911437E-6
% TCTL (m^2) @ t=108, gamma=0.1475, alpha=0.015
1.289170965821195
% TCN (m^2) @ t=108, gamma=0.1475, alpha=0.015
1.0073636595616363E-5
% TCTL (m^2) @ t=109, gamma=0.1475, alpha=0.015
1.1670081994829036
% TCN (m^2) @ t=109, gamma=0.1475, alpha=0.015
1.1120076551508181E-5
% TCTL (m^2) @ t=110, gamma=0.1475, alpha=0.015
1.0566977798829964
% TCN (m^2) @ t=110, gamma=0.1475, alpha=0.015
1.2362861499280867E-5
% TCTL (m^2) @ t=111, gamma=0.1475, alpha=0.015
0.956880284808592
% TCN (m^2) @ t=111, gamma=0.1475, alpha=0.015
1.3817894629479E-5
% TCTL (m^2) @ t=112, gamma=0.1475, alpha=0.015
0.8666664458766944
% TCN (m^2) @ t=112, gamma=0.1475, alpha=0.015
1.5534035133712492E-5
% TCTL (m^2) @ t=113, gamma=0.1475, alpha=0.015
0.7849452456795274
% TCN (m^2) @ t=113, gamma=0.1475, alpha=0.015
1.7553872695554445E-5
% TCTL (m^2) @ t=114, gamma=0.1475, alpha=0.015
0.7108695477778149
% TCN (m^2) @ t=114, gamma=0.1475, alpha=0.015
1.99541243502526E-5
% TCTL (m^2) @ t=115, gamma=0.1475, alpha=0.015
0.6435745645148337
% TCN (m^2) @ t=115, gamma=0.1475, alpha=0.015
2.2808675039412418E-5
% TCTL (m^2) @ t=116, gamma=0.1475, alpha=0.015
0.5823064523046815
% TCN (m^2) @ t=116, gamma=0.1475, alpha=0.015
2.6209210402993615E-5
% TCTL (m^2) @ t=117, gamma=0.1475, alpha=0.015
0.5268277660462906
% TCN (m^2) @ t=117, gamma=0.1475, alpha=0.015
3.025003232344539E-5
% TCTL (m^2) @ t=118, gamma=0.1475, alpha=0.015
0.4766106727482097
% TCN (m^2) @ t=118, gamma=0.1475, alpha=0.015
3.5047370495805305E-5
% TCTL (m^2) @ t=119, gamma=0.1475, alpha=0.015
0.43138017012263474
% TCN (m^2) @ t=119, gamma=0.1475, alpha=0.015
4.072637972428244E-5
% TCTL (m^2) @ t=120, gamma=0.1475, alpha=0.015
0.390707956585577
% TCN (m^2) @ t=120, gamma=0.1475, alpha=0.015
4.745476414568997E-5
% TCTL (m^2) @ t=121, gamma=0.1475, alpha=0.015
0.353752663906326
% TCN (m^2) @ t=121, gamma=0.1475, alpha=0.015
5.547143777899556E-5
% TCTL (m^2) @ t=122, gamma=0.1475, alpha=0.015
0.32052243842508593
% TCN (m^2) @ t=122, gamma=0.1475, alpha=0.015
6.494719699766174E-5
% TCTL (m^2) @ t=123, gamma=0.1475, alpha=0.015
0.2907941970215977
% TCN (m^2) @ t=123, gamma=0.1475, alpha=0.015
7.610398208036554E-5
% TCTL (m^2) @ t=124, gamma=0.1475, alpha=0.015
0.26416885913322785
% TCN (m^2) @ t=124, gamma=0.1475, alpha=0.015
8.931166802907185E-5
% TCTL (m^2) @ t=125, gamma=0.1475, alpha=0.015
0.240399401130105
% TCN (m^2) @ t=125, gamma=0.1475, alpha=0.015
1.0490823373719409E-4
% TCTL (m^2) @ t=126, gamma=0.1475, alpha=0.015
0.21936768725260658
% TCN (m^2) @ t=126, gamma=0.1475, alpha=0.015
1.2321246266393823E-4
% TCTL (m^2) @ t=127, gamma=0.1475, alpha=0.015
0.20087032144585146
% TCN (m^2) @ t=127, gamma=0.1475, alpha=0.015
1.4472840980764474E-4
% TCTL (m^2) @ t=128, gamma=0.1475, alpha=0.015
0.18466456112243015
% TCN (m^2) @ t=128, gamma=0.1475, alpha=0.015
1.701357529780402E-4
% TCTL (m^2) @ t=129, gamma=0.1475, alpha=0.015
0.17066765705807999
% TCN (m^2) @ t=129, gamma=0.1475, alpha=0.015
1.9992129134951687E-4
% TCTL (m^2) @ t=130, gamma=0.1475, alpha=0.015
0.15876904330513933
% TCN (m^2) @ t=130, gamma=0.1475, alpha=0.015
2.3475925724736742E-4
% TCTL (m^2) @ t=131, gamma=0.1475, alpha=0.015
0.14884237813084708
% TCN (m^2) @ t=131, gamma=0.1475, alpha=0.015
2.757185477424668E-4
% TCTL (m^2) @ t=132, gamma=0.1475, alpha=0.015
0.14083332759379885
% TCN (m^2) @ t=132, gamma=0.1475, alpha=0.015
3.23565175939441E-4
% TCTL (m^2) @ t=133, gamma=0.1475, alpha=0.015
0.13469560009362322
% TCN (m^2) @ t=133, gamma=0.1475, alpha=0.015
3.7927055531956574E-4
% TCTL (m^2) @ t=134, gamma=0.1475, alpha=0.015
0.13023190978137586
% TCN (m^2) @ t=134, gamma=0.1475, alpha=0.015
4.443783503803307E-4
% TCTL (m^2) @ t=135, gamma=0.1475, alpha=0.015
0.12739327677961737
% TCN (m^2) @ t=135, gamma=0.1475, alpha=0.015
5.201615879764073E-4
% TCTL (m^2) @ t=136, gamma=0.1475, alpha=0.015
0.12612851153844662
% TCN (m^2) @ t=136, gamma=0.1475, alpha=0.015
6.080465391640137E-4
% TCTL (m^2) @ t=137, gamma=0.1475, alpha=0.015
0.12626615413366765
% TCN (m^2) @ t=137, gamma=0.1475, alpha=0.015
7.099990227506384E-4
% TCTL (m^2) @ t=138, gamma=0.1475, alpha=0.015
0.12762298366126174
% TCN (m^2) @ t=138, gamma=0.1475, alpha=0.015
8.281748833621249E-4
% TCTL (m^2) @ t=139, gamma=0.1475, alpha=0.015
0.13011035702562673
% TCN (m^2) @ t=139, gamma=0.1475, alpha=0.015
9.645709411498775E-4
% TCTL (m^2) @ t=140, gamma=0.1475, alpha=0.015
0.13359268234915797
% TCN (m^2) @ t=140, gamma=0.1475, alpha=0.015
0.0011217266413617128
% TCTL (m^2) @ t=141, gamma=0.1475, alpha=0.015
0.13793753565488298
% TCN (m^2) @ t=141, gamma=0.1475, alpha=0.015
0.001302935631706908
% TCTL (m^2) @ t=142, gamma=0.1475, alpha=0.015
0.14299464033447493
% TCN (m^2) @ t=142, gamma=0.1475, alpha=0.015
0.0015109765748563776
% TCTL (m^2) @ t=143, gamma=0.1475, alpha=0.015
0.14862213202568425
% TCN (m^2) @ t=143, gamma=0.1475, alpha=0.015
0.001749226005595567
% TCTL (m^2) @ t=144, gamma=0.1475, alpha=0.015
0.1549740696007747
% TCN (m^2) @ t=144, gamma=0.1475, alpha=0.015
0.0020239575365604743
% TCTL (m^2) @ t=145, gamma=0.1475, alpha=0.015
0.16184517276512356
% TCN (m^2) @ t=145, gamma=0.1475, alpha=0.015
0.0023374560034078893
% TCTL (m^2) @ t=146, gamma=0.1475, alpha=0.015
0.16914739149810284
% TCN (m^2) @ t=146, gamma=0.1475, alpha=0.015
0.0026933562070559887
% TCTL (m^2) @ t=147, gamma=0.1475, alpha=0.015
0.17699549227840594
% TCN (m^2) @ t=147, gamma=0.1475, alpha=0.015
0.0030999658083106746
% TCTL (m^2) @ t=148, gamma=0.1475, alpha=0.015
0.18535572426857388
% TCN (m^2) @ t=148, gamma=0.1475, alpha=0.015
0.003562170652634377
% TCTL (m^2) @ t=149, gamma=0.1475, alpha=0.015
0.19415343579667124
% TCN (m^2) @ t=149, gamma=0.1475, alpha=0.015
0.004083914236768232
% TCTL (m^2) @ t=150, gamma=0.1475, alpha=0.015
0.20342308455550825
% TCN (m^2) @ t=150, gamma=0.1475, alpha=0.015
0.004673672128610621
% TCTL (m^2) @ t=151, gamma=0.1475, alpha=0.015
0.21322719677472346
% TCN (m^2) @ t=151, gamma=0.1475, alpha=0.015
0.0053413889792431005
% TCTL (m^2) @ t=152, gamma=0.1475, alpha=0.015
0.2235177059143742
% TCN (m^2) @ t=152, gamma=0.1475, alpha=0.015
0.006091221108885028
% TCTL (m^2) @ t=153, gamma=0.1475, alpha=0.015
0.2343598146218392
% TCN (m^2) @ t=153, gamma=0.1475, alpha=0.015
0.006931460041238981
% TCTL (m^2) @ t=154, gamma=0.1475, alpha=0.015
0.24612512195664163
% TCN (m^2) @ t=154, gamma=0.1475, alpha=0.015
0.007878317636671473
% TCTL (m^2) @ t=155, gamma=0.1475, alpha=0.015
0.25873802261499246
% TCN (m^2) @ t=155, gamma=0.1475, alpha=0.015
0.008936445538214172
% TCTL (m^2) @ t=156, gamma=0.1475, alpha=0.015
0.2722781731886768
% TCN (m^2) @ t=156, gamma=0.1475, alpha=0.015
0.010114508903532915
% TCTL (m^2) @ t=157, gamma=0.1475, alpha=0.015
0.2866046312197075
% TCN (m^2) @ t=157, gamma=0.1475, alpha=0.015
0.011429951427786559
% TCTL (m^2) @ t=158, gamma=0.1475, alpha=0.015
0.30181704861361036
% TCN (m^2) @ t=158, gamma=0.1475, alpha=0.015
0.012890642573412454
% TCTL (m^2) @ t=159, gamma=0.1475, alpha=0.015
0.31796075816472397
% TCN (m^2) @ t=159, gamma=0.1475, alpha=0.015
0.014506613382213616
% TCTL (m^2) @ t=160, gamma=0.1475, alpha=0.015
0.3346244478678277
% TCN (m^2) @ t=160, gamma=0.1475, alpha=0.015
0.016322602043779177
% TCTL (m^2) @ t=161, gamma=0.1475, alpha=0.015
0.3517173377674316
% TCN (m^2) @ t=161, gamma=0.1475, alpha=0.015
0.018340886668000187
% TCTL (m^2) @ t=162, gamma=0.1475, alpha=0.015
0.3694103615946217
% TCN (m^2) @ t=162, gamma=0.1475, alpha=0.015
0.02054610132865021
% TCTL (m^2) @ t=163, gamma=0.1475, alpha=0.015
0.38794034922416887
% TCN (m^2) @ t=163, gamma=0.1475, alpha=0.015
0.022968696681445026
% TCTL (m^2) @ t=164, gamma=0.1475, alpha=0.015
0.40770400732474443
% TCN (m^2) @ t=164, gamma=0.1475, alpha=0.015
0.025659679712725026
% TCTL (m^2) @ t=165, gamma=0.1475, alpha=0.015
0.42841405385671694
% TCN (m^2) @ t=165, gamma=0.1475, alpha=0.015
0.02858211282544791
% TCTL (m^2) @ t=166, gamma=0.1475, alpha=0.015
0.45009497747476424
% TCN (m^2) @ t=166, gamma=0.1475, alpha=0.015
0.031743905865617456
% TCTL (m^2) @ t=167, gamma=0.1475, alpha=0.015
0.4730352208745403
% TCN (m^2) @ t=167, gamma=0.1475, alpha=0.015
0.03523822594811415
% TCTL (m^2) @ t=168, gamma=0.1475, alpha=0.015
0.4970728019273246
% TCN (m^2) @ t=168, gamma=0.1475, alpha=0.015
0.03901275277562274
% TCTL (m^2) @ t=169, gamma=0.1475, alpha=0.015
0.5222077206331183
% TCN (m^2) @ t=169, gamma=0.1475, alpha=0.015
0.043067486348143204
% TCTL (m^2) @ t=170, gamma=0.1475, alpha=0.015
0.5486906434609832
% TCN (m^2) @ t=170, gamma=0.1475, alpha=0.015
0.047481661166486964
% TCTL (m^2) @ t=171, gamma=0.1475, alpha=0.015
0.5764627703102001
% TCN (m^2) @ t=171, gamma=0.1475, alpha=0.015
0.05223669079328231
% TCTL (m^2) @ t=172, gamma=0.1475, alpha=0.015
0.6054818917590408
% TCN (m^2) @ t=172, gamma=0.1475, alpha=0.015
0.05731923302734723
% TCTL (m^2) @ t=173, gamma=0.1475, alpha=0.015
0.6358344674115092
% TCN (m^2) @ t=173, gamma=0.1475, alpha=0.015
0.06274791008739311
% TCTL (m^2) @ t=174, gamma=0.1475, alpha=0.015
0.6676163464128926
% TCN (m^2) @ t=174, gamma=0.1475, alpha=0.015
0.06854336657117752
% TCTL (m^2) @ t=175, gamma=0.1475, alpha=0.015
0.7008162246730187
% TCN (m^2) @ t=175, gamma=0.1475, alpha=0.015
0.07470316773195385
% TCTL (m^2) @ t=176, gamma=0.1475, alpha=0.015
0.7354695964509751
% TCN (m^2) @ t=176, gamma=0.1475, alpha=0.015
0.0812349585487088
% TCTL (m^2) @ t=177, gamma=0.1475, alpha=0.015
0.7716119560058616
% TCN (m^2) @ t=177, gamma=0.1475, alpha=0.015
0.0881463840004303
% TCTL (m^2) @ t=178, gamma=0.1475, alpha=0.015
0.8092787975967661
% TCN (m^2) @ t=178, gamma=0.1475, alpha=0.015
0.09544508906610477
% TCTL (m^2) @ t=179, gamma=0.1475, alpha=0.015
0.8485056154827834
% TCN (m^2) @ t=179, gamma=0.1475, alpha=0.015
0.10313871872471968
% TCTL (m^2) @ t=180, gamma=0.1475, alpha=0.015
0.8900138379554512
% TCN (m^2) @ t=180, gamma=0.1475, alpha=0.015
0.11114245452749424
% TCTL (m^2) @ t=181, gamma=0.1475, alpha=0.015
0.9334934792605336
% TCN (m^2) @ t=181, gamma=0.1475, alpha=0.015
0.11951051191755166
% TCTL (m^2) @ t=182, gamma=0.1475, alpha=0.015
0.9790219240022359
% TCN (m^2) @ t=182, gamma=0.1475, alpha=0.015
0.12824488908465956
% TCTL (m^2) @ t=183, gamma=0.1475, alpha=0.015
1.0266860106275506
% TCN (m^2) @ t=183, gamma=0.1475, alpha=0.015
0.1373463098471911
% TCTL (m^2) @ t=184, gamma=0.1475, alpha=0.015
1.0765725775834785
% TCN (m^2) @ t=184, gamma=0.1475, alpha=0.015
0.14681549802351884
% TCTL (m^2) @ t=185, gamma=0.1475, alpha=0.015
1.1287684633170056
% TCN (m^2) @ t=185, gamma=0.1475, alpha=0.015
0.15665317743201565
% TCTL (m^2) @ t=186, gamma=0.1475, alpha=0.015
1.1834983295841295
% TCN (m^2) @ t=186, gamma=0.1475, alpha=0.015
0.16673205220590714
% TCTL (m^2) @ t=187, gamma=0.1475, alpha=0.015
1.241001815644728
% TCN (m^2) @ t=187, gamma=0.1475, alpha=0.015
0.17691091435175693
% TCTL (m^2) @ t=188, gamma=0.1475, alpha=0.015
1.3012389957145447
% TCN (m^2) @ t=188, gamma=0.1475, alpha=0.015
0.1873082349477487
% TCTL (m^2) @ t=189, gamma=0.1475, alpha=0.015
1.3643172348777184
% TCN (m^2) @ t=189, gamma=0.1475, alpha=0.015
0.1979056712723231
% TCTL (m^2) @ t=190, gamma=0.1475, alpha=0.015
1.4303438982183971
% TCN (m^2) @ t=190, gamma=0.1475, alpha=0.015
0.2086848806039201
% TCTL (m^2) @ t=191, gamma=0.1475, alpha=0.015
1.4994263508207128
% TCN (m^2) @ t=191, gamma=0.1475, alpha=0.015
0.21962752022097828
% TCTL (m^2) @ t=192, gamma=0.1475, alpha=0.015
1.5716719577688099
% TCN (m^2) @ t=192, gamma=0.1475, alpha=0.015
0.23071524740193672
% TCTL (m^2) @ t=193, gamma=0.1475, alpha=0.015
1.6477265640376304
% TCN (m^2) @ t=193, gamma=0.1475, alpha=0.015
0.24156880522150687
% TCTL (m^2) @ t=194, gamma=0.1475, alpha=0.015
1.7274897867446601
% TCN (m^2) @ t=194, gamma=0.1475, alpha=0.015
0.2523090932831341
% TCTL (m^2) @ t=195, gamma=0.1475, alpha=0.015
1.811039806643361
% TCN (m^2) @ t=195, gamma=0.1475, alpha=0.015
0.26293732955758065
% TCTL (m^2) @ t=196, gamma=0.1475, alpha=0.015
1.8985197760874817
% TCN (m^2) @ t=196, gamma=0.1475, alpha=0.015
0.2734111850349662
% TCTL (m^2) @ t=197, gamma=0.1475, alpha=0.015
1.9900728474307812
% TCN (m^2) @ t=197, gamma=0.1475, alpha=0.015
0.28368833070540966
% TCTL (m^2) @ t=198, gamma=0.1475, alpha=0.015
2.0858421730270167
% TCN (m^2) @ t=198, gamma=0.1475, alpha=0.015
0.2937264375590278
% TCTL (m^2) @ t=199, gamma=0.1475, alpha=0.015
2.1862154419474695
% TCN (m^2) @ t=199, gamma=0.1475, alpha=0.015
0.303383431167743
% TCTL (m^2) @ t=200, gamma=0.1475, alpha=0.015
2.291865609285266
% TCN (m^2) @ t=200, gamma=0.1475, alpha=0.015
0.31240087838675423
% TCTL (m^2) @ t=0, gamma=0.1475, alpha=0.0175
0.8999913850998451
% TCN (m^2) @ t=0, gamma=0.1475, alpha=0.0175
4.6384710345022395E-4
% TCTL (m^2) @ t=1, gamma=0.1475, alpha=0.0175
0.8833283020252867
% TCN (m^2) @ t=1, gamma=0.1475, alpha=0.0175
5.217349570881523E-4
% TCTL (m^2) @ t=2, gamma=0.1475, alpha=0.0175
0.874708267687561
% TCN (m^2) @ t=2, gamma=0.1475, alpha=0.0175
5.869870765594636E-4
% TCTL (m^2) @ t=3, gamma=0.1475, alpha=0.0175
0.8720499072042993
% TCN (m^2) @ t=3, gamma=0.1475, alpha=0.0175
6.588426446671946E-4
% TCTL (m^2) @ t=4, gamma=0.1475, alpha=0.0175
0.8755342094178606
% TCN (m^2) @ t=4, gamma=0.1475, alpha=0.0175
7.391733402210138E-4
% TCTL (m^2) @ t=5, gamma=0.1475, alpha=0.0175
0.8848886956800803
% TCN (m^2) @ t=5, gamma=0.1475, alpha=0.0175
8.289146903967658E-4
% TCTL (m^2) @ t=6, gamma=0.1475, alpha=0.0175
0.8996680206636268
% TCN (m^2) @ t=6, gamma=0.1475, alpha=0.0175
9.287178194552205E-4
% TCTL (m^2) @ t=7, gamma=0.1475, alpha=0.0175
0.9193736292177727
% TCN (m^2) @ t=7, gamma=0.1475, alpha=0.0175
0.0010401242985395012
% TCTL (m^2) @ t=8, gamma=0.1475, alpha=0.0175
0.9438194240452681
% TCN (m^2) @ t=8, gamma=0.1475, alpha=0.0175
0.0011638767139845103
% TCTL (m^2) @ t=9, gamma=0.1475, alpha=0.0175
0.9726500195897791
% TCN (m^2) @ t=9, gamma=0.1475, alpha=0.0175
0.001301307840167407
% TCTL (m^2) @ t=10, gamma=0.1475, alpha=0.0175
1.0055202303226747
% TCN (m^2) @ t=10, gamma=0.1475, alpha=0.0175
0.0014539069273678976
% TCTL (m^2) @ t=11, gamma=0.1475, alpha=0.0175
1.0422798515407903
% TCN (m^2) @ t=11, gamma=0.1475, alpha=0.0175
0.0016230705359795595
% TCTL (m^2) @ t=12, gamma=0.1475, alpha=0.0175
1.0828108356651156
% TCN (m^2) @ t=12, gamma=0.1475, alpha=0.0175
0.0018107196565912715
% TCTL (m^2) @ t=13, gamma=0.1475, alpha=0.0175
1.1269247208815054
% TCN (m^2) @ t=13, gamma=0.1475, alpha=0.0175
0.002018460931008832
% TCTL (m^2) @ t=14, gamma=0.1475, alpha=0.0175
1.1745589133002996
% TCN (m^2) @ t=14, gamma=0.1475, alpha=0.0175
0.002248206534555858
% TCTL (m^2) @ t=15, gamma=0.1475, alpha=0.0175
1.2255981194068524
% TCN (m^2) @ t=15, gamma=0.1475, alpha=0.0175
0.002501759099489774
% TCTL (m^2) @ t=16, gamma=0.1475, alpha=0.0175
1.2798987266115898
% TCN (m^2) @ t=16, gamma=0.1475, alpha=0.0175
0.0027808623931652285
% TCTL (m^2) @ t=17, gamma=0.1475, alpha=0.0175
1.337661689515278
% TCN (m^2) @ t=17, gamma=0.1475, alpha=0.0175
0.0030876125059156956
% TCTL (m^2) @ t=18, gamma=0.1475, alpha=0.0175
1.3987901671551355
% TCN (m^2) @ t=18, gamma=0.1475, alpha=0.0175
0.0034238192373424545
% TCTL (m^2) @ t=19, gamma=0.1475, alpha=0.0175
1.463226554513591
% TCN (m^2) @ t=19, gamma=0.1475, alpha=0.0175
0.0037913165605069233
% TCTL (m^2) @ t=20, gamma=0.1475, alpha=0.0175
1.5312899701764828
% TCN (m^2) @ t=20, gamma=0.1475, alpha=0.0175
0.004191129479967394
% TCTL (m^2) @ t=21, gamma=0.1475, alpha=0.0175