% Model:              MODEL_SC_3_0.15_II.mph
% Version:            COMSOL 5.6.0.401
% Date:               May 21 2022, 13:20
% Dimension:          0
% Nodes:              12462
% Expressions:        12462
% Description:        , 
% TCTL (m^2) @ t=0, gamma=0.2, alpha=0.015
0.9000011325674568
% TCN (m^2) @ t=0, gamma=0.2, alpha=0.015
4.6384110306793997E-4
% TCTL (m^2) @ t=1, gamma=0.2, alpha=0.015
0.9072389383358943
% TCN (m^2) @ t=1, gamma=0.2, alpha=0.015
5.036263924774438E-4
% TCTL (m^2) @ t=2, gamma=0.2, alpha=0.015
0.921405930139858
% TCN (m^2) @ t=2, gamma=0.2, alpha=0.015
5.448847041704291E-4
% TCTL (m^2) @ t=3, gamma=0.2, alpha=0.015
0.9425543094038757
% TCN (m^2) @ t=3, gamma=0.2, alpha=0.015
5.878807170870549E-4
% TCTL (m^2) @ t=4, gamma=0.2, alpha=0.015
0.9709372166580421
% TCN (m^2) @ t=4, gamma=0.2, alpha=0.015
6.328910872248328E-4
% TCTL (m^2) @ t=5, gamma=0.2, alpha=0.015
1.006709943773129
% TCN (m^2) @ t=5, gamma=0.2, alpha=0.015
6.801890396083403E-4
% TCTL (m^2) @ t=6, gamma=0.2, alpha=0.015
1.0501558644048041
% TCN (m^2) @ t=6, gamma=0.2, alpha=0.015
7.300984800702367E-4
% TCTL (m^2) @ t=7, gamma=0.2, alpha=0.015
1.1016761658469734
% TCN (m^2) @ t=7, gamma=0.2, alpha=0.015
7.829395505437734E-4
% TCTL (m^2) @ t=8, gamma=0.2, alpha=0.015
1.1616889787687124
% TCN (m^2) @ t=8, gamma=0.2, alpha=0.015
8.390321911355873E-4
% TCTL (m^2) @ t=9, gamma=0.2, alpha=0.015
1.230821481337646
% TCN (m^2) @ t=9, gamma=0.2, alpha=0.015
8.987256535177017E-4
% TCTL (m^2) @ t=10, gamma=0.2, alpha=0.015
1.3096316596555737
% TCN (m^2) @ t=10, gamma=0.2, alpha=0.015
9.623536676141987E-4
% TCTL (m^2) @ t=11, gamma=0.2, alpha=0.015
1.3990719647825078
% TCN (m^2) @ t=11, gamma=0.2, alpha=0.015
0.0010302739429852291
% TCTL (m^2) @ t=12, gamma=0.2, alpha=0.015
1.4999051915180552
% TCN (m^2) @ t=12, gamma=0.2, alpha=0.015
0.0011027835070468684
% TCTL (m^2) @ t=13, gamma=0.2, alpha=0.015
1.6133580758879758
% TCN (m^2) @ t=13, gamma=0.2, alpha=0.015
0.0011800614188341141
% TCTL (m^2) @ t=14, gamma=0.2, alpha=0.015
1.740464867902336
% TCN (m^2) @ t=14, gamma=0.2, alpha=0.015
0.0012622552402080536
% TCTL (m^2) @ t=15, gamma=0.2, alpha=0.015
1.8826670993069783
% TCN (m^2) @ t=15, gamma=0.2, alpha=0.015
0.0013492241224361437
% TCTL (m^2) @ t=16, gamma=0.2, alpha=0.015
2.041313743241999
% TCN (m^2) @ t=16, gamma=0.2, alpha=0.015
0.0014408143004080646
% TCTL (m^2) @ t=17, gamma=0.2, alpha=0.015
2.2182756479595622
% TCN (m^2) @ t=17, gamma=0.2, alpha=0.015
0.0015362811528540476
% TCTL (m^2) @ t=18, gamma=0.2, alpha=0.015
2.415241590963826
% TCN (m^2) @ t=18, gamma=0.2, alpha=0.015
0.0016350142154999744
% TCTL (m^2) @ t=19, gamma=0.2, alpha=0.015
2.634068938273542
% TCN (m^2) @ t=19, gamma=0.2, alpha=0.015
0.0017361109302862364
% TCTL (m^2) @ t=20, gamma=0.2, alpha=0.015
2.8767991835176456
% TCN (m^2) @ t=20, gamma=0.2, alpha=0.015
0.0018385116005105832
% TCTL (m^2) @ t=21, gamma=0.2, alpha=0.015
3.1455879779989284
% TCN (m^2) @ t=21, gamma=0.2, alpha=0.015
0.0019409842948238983
% TCTL (m^2) @ t=22, gamma=0.2, alpha=0.015
3.442964115741959
% TCN (m^2) @ t=22, gamma=0.2, alpha=0.015
0.002041915961264902
% TCTL (m^2) @ t=23, gamma=0.2, alpha=0.015
3.7716417100700466
% TCN (m^2) @ t=23, gamma=0.2, alpha=0.015
0.002139478826513724
% TCTL (m^2) @ t=24, gamma=0.2, alpha=0.015
4.134653491257356
% TCN (m^2) @ t=24, gamma=0.2, alpha=0.015
0.002231415852302695
% TCTL (m^2) @ t=25, gamma=0.2, alpha=0.015
4.535263615778845
% TCN (m^2) @ t=25, gamma=0.2, alpha=0.015
0.0023152277052278267
% TCTL (m^2) @ t=26, gamma=0.2, alpha=0.015
4.977412368108097
% TCN (m^2) @ t=26, gamma=0.2, alpha=0.015
0.0023885170088990175
% TCTL (m^2) @ t=27, gamma=0.2, alpha=0.015
5.464563118662123
% TCN (m^2) @ t=27, gamma=0.2, alpha=0.015
0.002448824563569969
% TCTL (m^2) @ t=28, gamma=0.2, alpha=0.015
6.00134793171709
% TCN (m^2) @ t=28, gamma=0.2, alpha=0.015
0.0024933760975908476
% TCTL (m^2) @ t=29, gamma=0.2, alpha=0.015
6.591725275408511
% TCN (m^2) @ t=29, gamma=0.2, alpha=0.015
0.002519733291557767
% TCTL (m^2) @ t=30, gamma=0.2, alpha=0.015
7.240971417695475
% TCN (m^2) @ t=30, gamma=0.2, alpha=0.015
0.0025258917070064414
% TCTL (m^2) @ t=31, gamma=0.2, alpha=0.015
7.9536179354437175
% TCN (m^2) @ t=31, gamma=0.2, alpha=0.015
0.0025097415849516863
% TCTL (m^2) @ t=32, gamma=0.2, alpha=0.015
8.735260765155406
% TCN (m^2) @ t=32, gamma=0.2, alpha=0.015
0.002470532697466953
% TCTL (m^2) @ t=33, gamma=0.2, alpha=0.015
9.590794279392595
% TCN (m^2) @ t=33, gamma=0.2, alpha=0.015
0.002407103644430199
% TCTL (m^2) @ t=34, gamma=0.2, alpha=0.015
10.525461449943958
% TCN (m^2) @ t=34, gamma=0.2, alpha=0.015
0.002320325554918601
% TCTL (m^2) @ t=35, gamma=0.2, alpha=0.015
11.545729386431551
% TCN (m^2) @ t=35, gamma=0.2, alpha=0.015
0.002210053070198238
% TCTL (m^2) @ t=36, gamma=0.2, alpha=0.015
12.654200703130982
% TCN (m^2) @ t=36, gamma=0.2, alpha=0.015
0.0020772302878454127
% TCTL (m^2) @ t=37, gamma=0.2, alpha=0.015
13.85140693791911
% TCN (m^2) @ t=37, gamma=0.2, alpha=0.015
0.0019269756521292226
% TCTL (m^2) @ t=38, gamma=0.2, alpha=0.015
15.135192096283477
% TCN (m^2) @ t=38, gamma=0.2, alpha=0.015
0.0017611934754441978
% TCTL (m^2) @ t=39, gamma=0.2, alpha=0.015
16.497911543488513
% TCN (m^2) @ t=39, gamma=0.2, alpha=0.015
0.0015843435522636447
% TCTL (m^2) @ t=40, gamma=0.2, alpha=0.015
17.91478412413656
% TCN (m^2) @ t=40, gamma=0.2, alpha=0.015
0.0014031491776308718
% TCTL (m^2) @ t=41, gamma=0.2, alpha=0.015
19.350906204771775
% TCN (m^2) @ t=41, gamma=0.2, alpha=0.015
0.0012216459883889873
% TCTL (m^2) @ t=42, gamma=0.2, alpha=0.015
20.75257091111033
% TCN (m^2) @ t=42, gamma=0.2, alpha=0.015
0.0010439470643906676
% TCTL (m^2) @ t=43, gamma=0.2, alpha=0.015
22.036152303288475
% TCN (m^2) @ t=43, gamma=0.2, alpha=0.015
8.74951332029114E-4
% TCTL (m^2) @ t=44, gamma=0.2, alpha=0.015
23.08751209517925
% TCN (m^2) @ t=44, gamma=0.2, alpha=0.015
7.191549712377773E-4
% TCTL (m^2) @ t=45, gamma=0.2, alpha=0.015
23.758094271572343
% TCN (m^2) @ t=45, gamma=0.2, alpha=0.015
5.78053816844942E-4
% TCTL (m^2) @ t=46, gamma=0.2, alpha=0.015
23.924419140942454
% TCN (m^2) @ t=46, gamma=0.2, alpha=0.015
4.5698553894464177E-4
% TCTL (m^2) @ t=47, gamma=0.2, alpha=0.015
23.558828212105766
% TCN (m^2) @ t=47, gamma=0.2, alpha=0.015
3.5288740897179705E-4
% TCTL (m^2) @ t=48, gamma=0.2, alpha=0.015
22.692084321916376
% TCN (m^2) @ t=48, gamma=0.2, alpha=0.015
2.6275161187327886E-4
% TCTL (m^2) @ t=49, gamma=0.2, alpha=0.015
21.414845719421304
% TCN (m^2) @ t=49, gamma=0.2, alpha=0.015
1.9116531876002508E-4
% TCTL (m^2) @ t=50, gamma=0.2, alpha=0.015
19.88386680460972
% TCN (m^2) @ t=50, gamma=0.2, alpha=0.015
1.3663343445144226E-4
% TCTL (m^2) @ t=51, gamma=0.2, alpha=0.015
18.25580373444141
% TCN (m^2) @ t=51, gamma=0.2, alpha=0.015
9.601832952942956E-5
% TCTL (m^2) @ t=52, gamma=0.2, alpha=0.015
16.633371001805216
% TCN (m^2) @ t=52, gamma=0.2, alpha=0.015
6.683736720591307E-5
% TCTL (m^2) @ t=53, gamma=0.2, alpha=0.015
15.090697996840746
% TCN (m^2) @ t=53, gamma=0.2, alpha=0.015
4.62392673497325E-5
% TCTL (m^2) @ t=54, gamma=0.2, alpha=0.015
13.664694931513438
% TCN (m^2) @ t=54, gamma=0.2, alpha=0.015
3.197727501689895E-5
% TCTL (m^2) @ t=55, gamma=0.2, alpha=0.015
12.366384412672975
% TCN (m^2) @ t=55, gamma=0.2, alpha=0.015
2.2470604914227514E-5
% TCTL (m^2) @ t=56, gamma=0.2, alpha=0.015
11.190554589848633
% TCN (m^2) @ t=56, gamma=0.2, alpha=0.015
1.5843988529070518E-5
% TCTL (m^2) @ t=57, gamma=0.2, alpha=0.015
10.125364692182137
% TCN (m^2) @ t=57, gamma=0.2, alpha=0.015
1.1196613524064613E-5
% TCTL (m^2) @ t=58, gamma=0.2, alpha=0.015
9.160787908141822
% TCN (m^2) @ t=58, gamma=0.2, alpha=0.015
8.047233942586834E-6
% TCTL (m^2) @ t=59, gamma=0.2, alpha=0.015
8.28637981980885
% TCN (m^2) @ t=59, gamma=0.2, alpha=0.015
5.868931424944669E-6
% TCTL (m^2) @ t=60, gamma=0.2, alpha=0.015
7.49406966704297
% TCN (m^2) @ t=60, gamma=0.2, alpha=0.015
4.344775744729102E-6
% TCTL (m^2) @ t=61, gamma=0.2, alpha=0.015
6.777627971741435
% TCN (m^2) @ t=61, gamma=0.2, alpha=0.015
3.315393550987023E-6
% TCTL (m^2) @ t=62, gamma=0.2, alpha=0.015
6.128231120460107
% TCN (m^2) @ t=62, gamma=0.2, alpha=0.015
2.5901757910050925E-6
% TCTL (m^2) @ t=63, gamma=0.2, alpha=0.015
5.541492374605947
% TCN (m^2) @ t=63, gamma=0.2, alpha=0.015
2.1055131539878058E-6
% TCTL (m^2) @ t=64, gamma=0.2, alpha=0.015
5.012077111979142
% TCN (m^2) @ t=64, gamma=0.2, alpha=0.015
1.7814740014636093E-6
% TCTL (m^2) @ t=65, gamma=0.2, alpha=0.015
4.534187318004729
% TCN (m^2) @ t=65, gamma=0.2, alpha=0.015
1.5552980578383447E-6
% TCTL (m^2) @ t=66, gamma=0.2, alpha=0.015
4.10252243998764
% TCN (m^2) @ t=66, gamma=0.2, alpha=0.015
1.4003248050462582E-6
% TCTL (m^2) @ t=67, gamma=0.2, alpha=0.015
3.7123766460215792
% TCN (m^2) @ t=67, gamma=0.2, alpha=0.015
1.2913702217116533E-6
% TCTL (m^2) @ t=68, gamma=0.2, alpha=0.015
3.359555624840836
% TCN (m^2) @ t=68, gamma=0.2, alpha=0.015
1.2172622857620443E-6
% TCTL (m^2) @ t=69, gamma=0.2, alpha=0.015
3.0402843442821106
% TCN (m^2) @ t=69, gamma=0.2, alpha=0.015
1.1730256743007378E-6
% TCTL (m^2) @ t=70, gamma=0.2, alpha=0.015
2.751399518020353
% TCN (m^2) @ t=70, gamma=0.2, alpha=0.015
1.1553329160330836E-6
% TCTL (m^2) @ t=71, gamma=0.2, alpha=0.015
2.4898104336442763
% TCN (m^2) @ t=71, gamma=0.2, alpha=0.015
1.1610757911484368E-6
% TCTL (m^2) @ t=72, gamma=0.2, alpha=0.015
2.252910998659094
% TCN (m^2) @ t=72, gamma=0.2, alpha=0.015
1.1892616147773049E-6
% TCTL (m^2) @ t=73, gamma=0.2, alpha=0.015
2.038414792623969
% TCN (m^2) @ t=73, gamma=0.2, alpha=0.015
1.2394229968554776E-6
% TCTL (m^2) @ t=74, gamma=0.2, alpha=0.015
1.8443857435613409
% TCN (m^2) @ t=74, gamma=0.2, alpha=0.015
1.31238583971831E-6
% TCTL (m^2) @ t=75, gamma=0.2, alpha=0.015
1.6691036287053256
% TCN (m^2) @ t=75, gamma=0.2, alpha=0.015
1.4116272553734298E-6
% TCTL (m^2) @ t=76, gamma=0.2, alpha=0.015
1.5105627431602506
% TCN (m^2) @ t=76, gamma=0.2, alpha=0.015
1.5381864669990285E-6
% TCTL (m^2) @ t=77, gamma=0.2, alpha=0.015
1.3670295732110807
% TCN (m^2) @ t=77, gamma=0.2, alpha=0.015
1.6948449901741258E-6
% TCTL (m^2) @ t=78, gamma=0.2, alpha=0.015
1.2373119321911636
% TCN (m^2) @ t=78, gamma=0.2, alpha=0.015
1.8880988551086633E-6
% TCTL (m^2) @ t=79, gamma=0.2, alpha=0.015
1.1194851626561355
% TCN (m^2) @ t=79, gamma=0.2, alpha=0.015
2.1195336330298843E-6
% TCTL (m^2) @ t=80, gamma=0.2, alpha=0.015
1.012753258979636
% TCN (m^2) @ t=80, gamma=0.2, alpha=0.015
2.399298118472475E-6
% TCTL (m^2) @ t=81, gamma=0.2, alpha=0.015
0.91607577623698
% TCN (m^2) @ t=81, gamma=0.2, alpha=0.015
2.735629088990493E-6
% TCTL (m^2) @ t=82, gamma=0.2, alpha=0.015
0.8279980978778215
% TCN (m^2) @ t=82, gamma=0.2, alpha=0.015
3.133889817315371E-6
% TCTL (m^2) @ t=83, gamma=0.2, alpha=0.015
0.7485908089729542
% TCN (m^2) @ t=83, gamma=0.2, alpha=0.015
3.618303491425073E-6
% TCTL (m^2) @ t=84, gamma=0.2, alpha=0.015
0.6765166897347199
% TCN (m^2) @ t=84, gamma=0.2, alpha=0.015
4.194543117942016E-6
% TCTL (m^2) @ t=85, gamma=0.2, alpha=0.015
0.6111872796384663
% TCN (m^2) @ t=85, gamma=0.2, alpha=0.015
4.883892857408987E-6
% TCTL (m^2) @ t=86, gamma=0.2, alpha=0.015
0.552319046334395
% TCN (m^2) @ t=86, gamma=0.2, alpha=0.015
5.716994359825393E-6
% TCTL (m^2) @ t=87, gamma=0.2, alpha=0.015
0.4990262614919856
% TCN (m^2) @ t=87, gamma=0.2, alpha=0.015
6.706009374003967E-6
% TCTL (m^2) @ t=88, gamma=0.2, alpha=0.015
0.45099341063357784
% TCN (m^2) @ t=88, gamma=0.2, alpha=0.015
7.913232462907597E-6
% TCTL (m^2) @ t=89, gamma=0.2, alpha=0.015
0.40777916636270983
% TCN (m^2) @ t=89, gamma=0.2, alpha=0.015
9.385619159620087E-6
% TCTL (m^2) @ t=90, gamma=0.2, alpha=0.015
0.3689334088915127
% TCN (m^2) @ t=90, gamma=0.2, alpha=0.015
1.1174366182787838E-5
% TCTL (m^2) @ t=91, gamma=0.2, alpha=0.015
0.3339026736239511
% TCN (m^2) @ t=91, gamma=0.2, alpha=0.015
1.3347313291867082E-5
% TCTL (m^2) @ t=92, gamma=0.2, alpha=0.015
0.3023364181147089
% TCN (m^2) @ t=92, gamma=0.2, alpha=0.015
1.5974637633698598E-5
% TCTL (m^2) @ t=93, gamma=0.2, alpha=0.015
0.27385064138287074
% TCN (m^2) @ t=93, gamma=0.2, alpha=0.015
1.914555452318551E-5
% TCTL (m^2) @ t=94, gamma=0.2, alpha=0.015
0.2480847997245874
% TCN (m^2) @ t=94, gamma=0.2, alpha=0.015
2.2961665070221598E-5
% TCTL (m^2) @ t=95, gamma=0.2, alpha=0.015
0.2247092465417903
% TCN (m^2) @ t=95, gamma=0.2, alpha=0.015
2.7526648087891418E-5
% TCTL (m^2) @ t=96, gamma=0.2, alpha=0.015
0.2035592859215954
% TCN (m^2) @ t=96, gamma=0.2, alpha=0.015
3.3007603241601444E-5
% TCTL (m^2) @ t=97, gamma=0.2, alpha=0.015
0.18439557020056402
% TCN (m^2) @ t=97, gamma=0.2, alpha=0.015
3.954623461448926E-5
% TCTL (m^2) @ t=98, gamma=0.2, alpha=0.015
0.1670585902174645
% TCN (m^2) @ t=98, gamma=0.2, alpha=0.015
4.733634527970975E-5
% TCTL (m^2) @ t=99, gamma=0.2, alpha=0.015
0.15144065538420626
% TCN (m^2) @ t=99, gamma=0.2, alpha=0.015
5.6642925812182665E-5
% TCTL (m^2) @ t=100, gamma=0.2, alpha=0.015
0.13746833307397036
% TCN (m^2) @ t=100, gamma=0.2, alpha=0.015
6.770107701058294E-5
% TCTL (m^2) @ t=101, gamma=0.2, alpha=0.015
0.1250041418496909
% TCN (m^2) @ t=101, gamma=0.2, alpha=0.015
8.087458547834529E-5
% TCTL (m^2) @ t=102, gamma=0.2, alpha=0.015
0.11397016982718003
% TCN (m^2) @ t=102, gamma=0.2, alpha=0.015
9.654241289377741E-5
% TCTL (m^2) @ t=103, gamma=0.2, alpha=0.015
0.10432705930363405
% TCN (m^2) @ t=103, gamma=0.2, alpha=0.015
1.1512464653548172E-4
% TCTL (m^2) @ t=104, gamma=0.2, alpha=0.015
0.09589684693651364
% TCN (m^2) @ t=104, gamma=0.2, alpha=0.015
1.3729798862489265E-4
% TCTL (m^2) @ t=105, gamma=0.2, alpha=0.015
0.08863478191210489
% TCN (m^2) @ t=105, gamma=0.2, alpha=0.015
1.6363018928226781E-4
% TCTL (m^2) @ t=106, gamma=0.2, alpha=0.015
0.08252705092657997
% TCN (m^2) @ t=106, gamma=0.2, alpha=0.015
1.9490130554705633E-4
% TCTL (m^2) @ t=107, gamma=0.2, alpha=0.015
0.07758034005104586
% TCN (m^2) @ t=107, gamma=0.2, alpha=0.015
2.3186834406093706E-4
% TCTL (m^2) @ t=108, gamma=0.2, alpha=0.015
0.07371991251963149
% TCN (m^2) @ t=108, gamma=0.2, alpha=0.015
2.7515935959473656E-4
% TCTL (m^2) @ t=109, gamma=0.2, alpha=0.015
0.07101138197937408
% TCN (m^2) @ t=109, gamma=0.2, alpha=0.015
3.261124824759876E-4
% TCTL (m^2) @ t=110, gamma=0.2, alpha=0.015
0.06942105972404804
% TCN (m^2) @ t=110, gamma=0.2, alpha=0.015
3.8547012545126706E-4
% TCTL (m^2) @ t=111, gamma=0.2, alpha=0.015
0.06895405916520239
% TCN (m^2) @ t=111, gamma=0.2, alpha=0.015
4.5439424524022136E-4
% TCTL (m^2) @ t=112, gamma=0.2, alpha=0.015
0.0696749183031553
% TCN (m^2) @ t=112, gamma=0.2, alpha=0.015
5.348839393775368E-4
% TCTL (m^2) @ t=113, gamma=0.2, alpha=0.015
0.07157235535493484
% TCN (m^2) @ t=113, gamma=0.2, alpha=0.015
6.278161742410391E-4
% TCTL (m^2) @ t=114, gamma=0.2, alpha=0.015
0.07467347937689238
% TCN (m^2) @ t=114, gamma=0.2, alpha=0.015
7.357005316061922E-4
% TCTL (m^2) @ t=115, gamma=0.2, alpha=0.015
0.07900108183080692
% TCN (m^2) @ t=115, gamma=0.2, alpha=0.015
8.606476341782917E-4
% TCTL (m^2) @ t=116, gamma=0.2, alpha=0.015
0.08457138387051924
% TCN (m^2) @ t=116, gamma=0.2, alpha=0.015
0.0010042909802619553
% TCTL (m^2) @ t=117, gamma=0.2, alpha=0.015
0.09140794425569887
% TCN (m^2) @ t=117, gamma=0.2, alpha=0.015
0.0011710325436290775
% TCTL (m^2) @ t=118, gamma=0.2, alpha=0.015
0.09952997121031865
% TCN (m^2) @ t=118, gamma=0.2, alpha=0.015
0.0013625798030472663
% TCTL (m^2) @ t=119, gamma=0.2, alpha=0.015
0.1089811093569818
% TCN (m^2) @ t=119, gamma=0.2, alpha=0.015
0.0015826763429405252
% TCTL (m^2) @ t=120, gamma=0.2, alpha=0.015
0.11982444647224466
% TCN (m^2) @ t=120, gamma=0.2, alpha=0.015
0.0018360980827646497
% TCTL (m^2) @ t=121, gamma=0.2, alpha=0.015
0.13208280155863503
% TCN (m^2) @ t=121, gamma=0.2, alpha=0.015
0.002125482869818174
% TCTL (m^2) @ t=122, gamma=0.2, alpha=0.015
0.14591706483615102
% TCN (m^2) @ t=122, gamma=0.2, alpha=0.015
0.00245736903582568
% TCTL (m^2) @ t=123, gamma=0.2, alpha=0.015
0.16139463864764364
% TCN (m^2) @ t=123, gamma=0.2, alpha=0.015
0.0028359228886308133
% TCTL (m^2) @ t=124, gamma=0.2, alpha=0.015
0.17861886826847873
% TCN (m^2) @ t=124, gamma=0.2, alpha=0.015
0.0032660221354429315
% TCTL (m^2) @ t=125, gamma=0.2, alpha=0.015
0.19785923203744915
% TCN (m^2) @ t=125, gamma=0.2, alpha=0.015
0.0037559335831129784
% TCTL (m^2) @ t=126, gamma=0.2, alpha=0.015
0.21919098300423054
% TCN (m^2) @ t=126, gamma=0.2, alpha=0.015
0.004310037498413598
% TCTL (m^2) @ t=127, gamma=0.2, alpha=0.015
0.24287669995015063
% TCN (m^2) @ t=127, gamma=0.2, alpha=0.015
0.004936424261131566
% TCTL (m^2) @ t=128, gamma=0.2, alpha=0.015
0.2691740980974015
% TCN (m^2) @ t=128, gamma=0.2, alpha=0.015
0.005643088409998262
% TCTL (m^2) @ t=129, gamma=0.2, alpha=0.015
0.2982450931169718
% TCN (m^2) @ t=129, gamma=0.2, alpha=0.015
0.0064364318503876815
% TCTL (m^2) @ t=130, gamma=0.2, alpha=0.015
0.33056517435019395
% TCN (m^2) @ t=130, gamma=0.2, alpha=0.015
0.007352320883610257
% TCTL (m^2) @ t=131, gamma=0.2, alpha=0.015
0.36590147451976945
% TCN (m^2) @ t=131, gamma=0.2, alpha=0.015
0.008373960967996221
% TCTL (m^2) @ t=132, gamma=0.2, alpha=0.015
0.40487181698727137
% TCN (m^2) @ t=132, gamma=0.2, alpha=0.015
0.00951290398069441
% TCTL (m^2) @ t=133, gamma=0.2, alpha=0.015
0.448495620366659
% TCN (m^2) @ t=133, gamma=0.2, alpha=0.015
0.010788210707236954
% TCTL (m^2) @ t=134, gamma=0.2, alpha=0.015
0.4961567197661837
% TCN (m^2) @ t=134, gamma=0.2, alpha=0.015
0.012188360280049671
% TCTL (m^2) @ t=135, gamma=0.2, alpha=0.015
0.549535647266502
% TCN (m^2) @ t=135, gamma=0.2, alpha=0.015
0.013741574362984465
% TCTL (m^2) @ t=136, gamma=0.2, alpha=0.015
0.6085293657533316
% TCN (m^2) @ t=136, gamma=0.2, alpha=0.015
0.015446122623822623
% TCTL (m^2) @ t=137, gamma=0.2, alpha=0.015
0.6732047504984552
% TCN (m^2) @ t=137, gamma=0.2, alpha=0.015
0.017300867985721873
% TCTL (m^2) @ t=138, gamma=0.2, alpha=0.015
0.7459875423127604
% TCN (m^2) @ t=138, gamma=0.2, alpha=0.015
0.019332430954282647
% TCTL (m^2) @ t=139, gamma=0.2, alpha=0.015
0.8256814214019721
% TCN (m^2) @ t=139, gamma=0.2, alpha=0.015
0.021527682906018038
% TCTL (m^2) @ t=140, gamma=0.2, alpha=0.015
0.9133700555676898
% TCN (m^2) @ t=140, gamma=0.2, alpha=0.015
0.023890857629608693
% TCTL (m^2) @ t=141, gamma=0.2, alpha=0.015
1.010470690153567
% TCN (m^2) @ t=141, gamma=0.2, alpha=0.015
0.026427492169973137
% TCTL (m^2) @ t=142, gamma=0.2, alpha=0.015
1.1171316900911503
% TCN (m^2) @ t=142, gamma=0.2, alpha=0.015
0.02913816617501338
% TCTL (m^2) @ t=143, gamma=0.2, alpha=0.015
1.2356356673532864
% TCN (m^2) @ t=143, gamma=0.2, alpha=0.015
0.032005364993555496
% TCTL (m^2) @ t=144, gamma=0.2, alpha=0.015
1.3667274803167055
% TCN (m^2) @ t=144, gamma=0.2, alpha=0.015
0.03503023579722618
% TCTL (m^2) @ t=145, gamma=0.2, alpha=0.015
1.5114596830229912
% TCN (m^2) @ t=145, gamma=0.2, alpha=0.015
0.03821019163406475
% TCTL (m^2) @ t=146, gamma=0.2, alpha=0.015
1.6714350511519538
% TCN (m^2) @ t=146, gamma=0.2, alpha=0.015
0.041525646098028085
% TCTL (m^2) @ t=147, gamma=0.2, alpha=0.015
1.8487879213723097
% TCN (m^2) @ t=147, gamma=0.2, alpha=0.015
0.044939377475397974
% TCTL (m^2) @ t=148, gamma=0.2, alpha=0.015
2.044445895996245
% TCN (m^2) @ t=148, gamma=0.2, alpha=0.015
0.04845419921700633
% TCTL (m^2) @ t=149, gamma=0.2, alpha=0.015
2.25980785550978
% TCN (m^2) @ t=149, gamma=0.2, alpha=0.015
0.05205728943593521
% TCTL (m^2) @ t=150, gamma=0.2, alpha=0.015
2.4990685794783287
% TCN (m^2) @ t=150, gamma=0.2, alpha=0.015
0.05561363428012661
% TCTL (m^2) @ t=151, gamma=0.2, alpha=0.015
2.7636445770917737
% TCN (m^2) @ t=151, gamma=0.2, alpha=0.015
0.05910964141784107
% TCTL (m^2) @ t=152, gamma=0.2, alpha=0.015
3.055168081463373
% TCN (m^2) @ t=152, gamma=0.2, alpha=0.015
0.06252229051962693
% TCTL (m^2) @ t=153, gamma=0.2, alpha=0.015
3.3768201712912296
% TCN (m^2) @ t=153, gamma=0.2, alpha=0.015
0.06580558331493556
% TCTL (m^2) @ t=154, gamma=0.2, alpha=0.015
3.7343710197089095
% TCN (m^2) @ t=154, gamma=0.2, alpha=0.015
0.06889544062953165
% TCTL (m^2) @ t=155, gamma=0.2, alpha=0.015
4.128845721141144
% TCN (m^2) @ t=155, gamma=0.2, alpha=0.015
0.07176092047797696
% TCTL (m^2) @ t=156, gamma=0.2, alpha=0.015
4.563365048955101
% TCN (m^2) @ t=156, gamma=0.2, alpha=0.015
0.07434856445638491
% TCTL (m^2) @ t=157, gamma=0.2, alpha=0.015
5.044426959193135
% TCN (m^2) @ t=157, gamma=0.2, alpha=0.015
0.07649683065408483
% TCTL (m^2) @ t=158, gamma=0.2, alpha=0.015
5.574102135499547
% TCN (m^2) @ t=158, gamma=0.2, alpha=0.015
0.07818586778608433
% TCTL (m^2) @ t=159, gamma=0.2, alpha=0.015
6.162031744798901
% TCN (m^2) @ t=159, gamma=0.2, alpha=0.015
0.07925937242174746
% TCTL (m^2) @ t=160, gamma=0.2, alpha=0.015
6.8127471613984545
% TCN (m^2) @ t=160, gamma=0.2, alpha=0.015
0.0796358564319059
% TCTL (m^2) @ t=161, gamma=0.2, alpha=0.015
7.532262281646707
% TCN (m^2) @ t=161, gamma=0.2, alpha=0.015
0.07933804576384801
% TCTL (m^2) @ t=162, gamma=0.2, alpha=0.015
8.326604500424287
% TCN (m^2) @ t=162, gamma=0.2, alpha=0.015
0.07835052469696917
% TCTL (m^2) @ t=163, gamma=0.2, alpha=0.015
9.204671316386548
% TCN (m^2) @ t=163, gamma=0.2, alpha=0.015
0.07655911090904763
% TCTL (m^2) @ t=164, gamma=0.2, alpha=0.015
10.17675752094294
% TCN (m^2) @ t=164, gamma=0.2, alpha=0.015
0.07384400897494725
% TCTL (m^2) @ t=165, gamma=0.2, alpha=0.015
11.250722030383546
% TCN (m^2) @ t=165, gamma=0.2, alpha=0.015
0.07029343912763455
% TCTL (m^2) @ t=166, gamma=0.2, alpha=0.015
12.43678637179676
% TCN (m^2) @ t=166, gamma=0.2, alpha=0.015
0.06622612861800058
% TCTL (m^2) @ t=167, gamma=0.2, alpha=0.015
13.751324978476315
% TCN (m^2) @ t=167, gamma=0.2, alpha=0.015
0.06159143702809097
% TCTL (m^2) @ t=168, gamma=0.2, alpha=0.015
15.207509392341112
% TCN (m^2) @ t=168, gamma=0.2, alpha=0.015
0.05634167119777801
% TCTL (m^2) @ t=169, gamma=0.2, alpha=0.015
16.818805341256724
% TCN (m^2) @ t=169, gamma=0.2, alpha=0.015
0.05067740898258449
% TCTL (m^2) @ t=170, gamma=0.2, alpha=0.015
18.59639979661859
% TCN (m^2) @ t=170, gamma=0.2, alpha=0.015
0.04470787185533553
% TCTL (m^2) @ t=171, gamma=0.2, alpha=0.015
20.569977381586316
% TCN (m^2) @ t=171, gamma=0.2, alpha=0.015
0.03879114130550065
% TCTL (m^2) @ t=172, gamma=0.2, alpha=0.015
22.748397999977602
% TCN (m^2) @ t=172, gamma=0.2, alpha=0.015
0.03292499070893107
% TCTL (m^2) @ t=173, gamma=0.2, alpha=0.015
25.154062643323215
% TCN (m^2) @ t=173, gamma=0.2, alpha=0.015
0.027237075144114498
% TCTL (m^2) @ t=174, gamma=0.2, alpha=0.015
27.823026247694685
% TCN (m^2) @ t=174, gamma=0.2, alpha=0.015
0.02203628663430887
% TCTL (m^2) @ t=175, gamma=0.2, alpha=0.015
30.764455678554683
% TCN (m^2) @ t=175, gamma=0.2, alpha=0.015
0.017318839203092393
% TCTL (m^2) @ t=176, gamma=0.2, alpha=0.015
34.017086599718766
% TCN (m^2) @ t=176, gamma=0.2, alpha=0.015
0.013183421995498561
% TCTL (m^2) @ t=177, gamma=0.2, alpha=0.015
37.60741753839097
% TCN (m^2) @ t=177, gamma=0.2, alpha=0.015
0.00972532037373209
% TCTL (m^2) @ t=178, gamma=0.2, alpha=0.015
41.550243530688505
% TCN (m^2) @ t=178, gamma=0.2, alpha=0.015
0.00695687760876093
% TCTL (m^2) @ t=179, gamma=0.2, alpha=0.015
45.86881590146863
% TCN (m^2) @ t=179, gamma=0.2, alpha=0.015
0.004701976353334142
% TCTL (m^2) @ t=180, gamma=0.2, alpha=0.015
50.53824918766662
% TCN (m^2) @ t=180, gamma=0.2, alpha=0.015
0.0030485838547666382
% TCTL (m^2) @ t=181, gamma=0.2, alpha=0.015
55.419764913146025
% TCN (m^2) @ t=181, gamma=0.2, alpha=0.015
0.0018870797954637125
% TCTL (m^2) @ t=182, gamma=0.2, alpha=0.015
60.03089680822559
% TCN (m^2) @ t=182, gamma=0.2, alpha=0.015
0.0011031472676195004
% TCTL (m^2) @ t=183, gamma=0.2, alpha=0.015
63.24812988355622
% TCN (m^2) @ t=183, gamma=0.2, alpha=0.015
6.134687056893789E-4
% TCTL (m^2) @ t=184, gamma=0.2, alpha=0.015
63.353686189330844
% TCN (m^2) @ t=184, gamma=0.2, alpha=0.015
3.2675674750108044E-4
% TCTL (m^2) @ t=185, gamma=0.2, alpha=0.015
60.26601075899413
% TCN (m^2) @ t=185, gamma=0.2, alpha=0.015
1.6266534500330844E-4
% TCTL (m^2) @ t=186, gamma=0.2, alpha=0.015
55.53438934540684
% TCN (m^2) @ t=186, gamma=0.2, alpha=0.015
7.199846506258874E-5
% TCTL (m^2) @ t=187, gamma=0.2, alpha=0.015
50.595029244109845
% TCN (m^2) @ t=187, gamma=0.2, alpha=0.015
3.0175142755891484E-5
% TCTL (m^2) @ t=188, gamma=0.2, alpha=0.015
45.86752022047175
% TCN (m^2) @ t=188, gamma=0.2, alpha=0.015
1.1299975685937169E-5
% TCTL (m^2) @ t=189, gamma=0.2, alpha=0.015
41.53249257305873
% TCN (m^2) @ t=189, gamma=0.2, alpha=0.015
4.317764422441941E-6
% TCTL (m^2) @ t=190, gamma=0.2, alpha=0.015
37.622473284779254
% TCN (m^2) @ t=190, gamma=0.2, alpha=0.015
1.8328672736842472E-6
% TCTL (m^2) @ t=191, gamma=0.2, alpha=0.015
34.123462198417826
% TCN (m^2) @ t=191, gamma=0.2, alpha=0.015
8.12214971329868E-7
% TCTL (m^2) @ t=192, gamma=0.2, alpha=0.015
30.911602810760648
% TCN (m^2) @ t=192, gamma=0.2, alpha=0.015
3.236005950672703E-7
% TCTL (m^2) @ t=193, gamma=0.2, alpha=0.015
27.97428836899678
% TCN (m^2) @ t=193, gamma=0.2, alpha=0.015
9.958873398463094E-8
% TCTL (m^2) @ t=194, gamma=0.2, alpha=0.015
25.308811647667586
% TCN (m^2) @ t=194, gamma=0.2, alpha=0.015
1.908281717303496E-8
% TCTL (m^2) @ t=195, gamma=0.2, alpha=0.015
22.898817684215082
% TCN (m^2) @ t=195, gamma=0.2, alpha=0.015
5.303867679243331E-9
% TCTL (m^2) @ t=196, gamma=0.2, alpha=0.015
20.71849299535169
% TCN (m^2) @ t=196, gamma=0.2, alpha=0.015
2.326256064018083E-9
% TCTL (m^2) @ t=197, gamma=0.2, alpha=0.015
18.746161479556733
% TCN (m^2) @ t=197, gamma=0.2, alpha=0.015
1.451868559918474E-9
% TCTL (m^2) @ t=198, gamma=0.2, alpha=0.015
16.96204190003021
% TCN (m^2) @ t=198, gamma=0.2, alpha=0.015
1.1814591255467299E-9
% TCTL (m^2) @ t=199, gamma=0.2, alpha=0.015
15.373924255566976
% TCN (m^2) @ t=199, gamma=0.2, alpha=0.015
1.0897007715587486E-9
% TCTL (m^2) @ t=200, gamma=0.2, alpha=0.015
13.945513081913784
% TCN (m^2) @ t=200, gamma=0.2, alpha=0.015
1.0912620783052442E-9
% TCTL (m^2) @ t=0, gamma=0.2, alpha=0.0175
0.9000011329163553
% TCN (m^2) @ t=0, gamma=0.2, alpha=0.0175
4.6384710322110786E-4
% TCTL (m^2) @ t=1, gamma=0.2, alpha=0.0175
0.9089702437100399
% TCN (m^2) @ t=1, gamma=0.2, alpha=0.0175
5.203542853295573E-4
% TCTL (m^2) @ t=2, gamma=0.2, alpha=0.0175
0.9276086416674965
% TCN (m^2) @ t=2, gamma=0.2, alpha=0.0175
5.810435538030263E-4
% TCTL (m^2) @ t=3, gamma=0.2, alpha=0.0175
0.9559236840328598
% TCN (m^2) @ t=3, gamma=0.2, alpha=0.0175
6.461767367397311E-4
% TCTL (m^2) @ t=4, gamma=0.2, alpha=0.0175
0.9941892182121225
% TCN (m^2) @ t=4, gamma=0.2, alpha=0.0175
7.160960535143357E-4
% TCTL (m^2) @ t=5, gamma=0.2, alpha=0.0175
1.0425214625858068
% TCN (m^2) @ t=5, gamma=0.2, alpha=0.0175
7.91107054462588E-4
% TCTL (m^2) @ t=6, gamma=0.2, alpha=0.0175
1.1012015750471185
% TCN (m^2) @ t=6, gamma=0.2, alpha=0.0175
8.716441700035984E-4
% TCTL (m^2) @ t=7, gamma=0.2, alpha=0.0175
1.170673428205018
% TCN (m^2) @ t=7, gamma=0.2, alpha=0.0175
9.582192223911503E-4
% TCTL (m^2) @ t=8, gamma=0.2, alpha=0.0175
1.2514040099402444
% TCN (m^2) @ t=8, gamma=0.2, alpha=0.0175
0.0010513505743798075
% TCTL (m^2) @ t=9, gamma=0.2, alpha=0.0175
1.344135678647941
% TCN (m^2) @ t=9, gamma=0.2, alpha=0.0175
0.0011516743986774085
% TCTL (m^2) @ t=10, gamma=0.2, alpha=0.0175
1.4495218581660423
% TCN (m^2) @ t=10, gamma=0.2, alpha=0.0175
0.0012597841491676668
% TCTL (m^2) @ t=11, gamma=0.2, alpha=0.0175
1.56874696517028
% TCN (m^2) @ t=11, gamma=0.2, alpha=0.0175
0.0013764738913623563
% TCTL (m^2) @ t=12, gamma=0.2, alpha=0.0175
1.7027370204965302
% TCN (m^2) @ t=12, gamma=0.2, alpha=0.0175
0.0015023269297168422
% TCTL (m^2) @ t=13, gamma=0.2, alpha=0.0175
1.8530363405145156
% TCN (m^2) @ t=13, gamma=0.2, alpha=0.0175
0.0016378353967287551
% TCTL (m^2) @ t=14, gamma=0.2, alpha=0.0175
2.0209339714529033
% TCN (m^2) @ t=14, gamma=0.2, alpha=0.0175
0.0017833230090242226
% TCTL (m^2) @ t=15, gamma=0.2, alpha=0.0175
2.208260885596439
% TCN (m^2) @ t=15, gamma=0.2, alpha=0.0175
0.0019385745312088267
% TCTL (m^2) @ t=16, gamma=0.2, alpha=0.0175
2.4167711541214008
% TCN (m^2) @ t=16, gamma=0.2, alpha=0.0175
0.0021033282908404513
% TCTL (m^2) @ t=17, gamma=0.2, alpha=0.0175
2.6489916306110795
% TCN (m^2) @ t=17, gamma=0.2, alpha=0.0175
0.0022761237954944946
% TCTL (m^2) @ t=18, gamma=0.2, alpha=0.0175
2.907099533967362
% TCN (m^2) @ t=18, gamma=0.2, alpha=0.0175
0.002455717383039651
% TCTL (m^2) @ t=19, gamma=0.2, alpha=0.0175
3.193449425428148
% TCN (m^2) @ t=19, gamma=0.2, alpha=0.0175
0.002640209754664327
% TCTL (m^2) @ t=20, gamma=0.2, alpha=0.0175
3.5108281967983084
% TCN (m^2) @ t=20, gamma=0.2, alpha=0.0175
0.0028273180637741263
% TCTL (m^2) @ t=21, gamma=0.2, alpha=0.0175
3.862222595298894
% TCN (m^2) @ t=21, gamma=0.2, alpha=0.0175
0.003014322065098366
% TCTL (m^2) @ t=22, gamma=0.2, alpha=0.0175
4.25101660709476
% TCN (m^2) @ t=22, gamma=0.2, alpha=0.0175
0.0031972613723614323
% TCTL (m^2) @ t=23, gamma=0.2, alpha=0.0175
4.680886628076369
% TCN (m^2) @ t=23, gamma=0.2, alpha=0.0175
0.0033715689443562
% TCTL (m^2) @ t=24, gamma=0.2, alpha=0.0175
5.156038260255521
% TCN (m^2) @ t=24, gamma=0.2, alpha=0.0175
0.0035345737726798277
% TCTL (m^2) @ t=25, gamma=0.2, alpha=0.0175
5.680980253486468
% TCN (m^2) @ t=25, gamma=0.2, alpha=0.0175
0.0036825645850547435
% TCTL (m^2) @ t=26, gamma=0.2, alpha=0.0175
6.260588732838884
% TCN (m^2) @ t=26, gamma=0.2, alpha=0.0175
0.0038006733858012604
% TCTL (m^2) @ t=27, gamma=0.2, alpha=0.0175
6.9002162973555965
% TCN (m^2) @ t=27, gamma=0.2, alpha=0.0175
0.003879494431125431
% TCTL (m^2) @ t=28, gamma=0.2, alpha=0.0175
7.606510556442531
% TCN (m^2) @ t=28, gamma=0.2, alpha=0.0175
0.003941200622751385
% TCTL (m^2) @ t=29, gamma=0.2, alpha=0.0175
8.38734483567064
% TCN (m^2) @ t=29, gamma=0.2, alpha=0.0175
0.003973063712185819
% TCTL (m^2) @ t=30, gamma=0.2, alpha=0.0175
9.249432216080308
% TCN (m^2) @ t=30, gamma=0.2, alpha=0.0175
0.003956832762914212
% TCTL (m^2) @ t=31, gamma=0.2, alpha=0.0175
10.201740757190715