% Model:              MODEL_SC_3_0.15_II.mph
% Version:            COMSOL 5.6.0.401
% Date:               May 21 2022, 13:19
% Dimension:          0
% Nodes:              12462
% Expressions:        12462
% Description:        , 
% TCTL (m^2) @ t=0, gamma=0.17, alpha=0.015
0.8999955624195413
% TCN (m^2) @ t=0, gamma=0.17, alpha=0.015
4.638411031988602E-4
% TCTL (m^2) @ t=1, gamma=0.17, alpha=0.015
0.8927827287725129
% TCN (m^2) @ t=1, gamma=0.17, alpha=0.015
5.043513512802665E-4
% TCTL (m^2) @ t=2, gamma=0.17, alpha=0.015
0.891817010287258
% TCN (m^2) @ t=2, gamma=0.17, alpha=0.015
5.476928045831191E-4
% TCTL (m^2) @ t=3, gamma=0.17, alpha=0.015
0.8961601074085509
% TCN (m^2) @ t=3, gamma=0.17, alpha=0.015
5.938628175017444E-4
% TCTL (m^2) @ t=4, gamma=0.17, alpha=0.015
0.9062601089837361
% TCN (m^2) @ t=4, gamma=0.17, alpha=0.015
6.435901282146532E-4
% TCTL (m^2) @ t=5, gamma=0.17, alpha=0.015
0.9219617776667584
% TCN (m^2) @ t=5, gamma=0.17, alpha=0.015
6.971878381781425E-4
% TCTL (m^2) @ t=6, gamma=0.17, alpha=0.015
0.943245615731189
% TCN (m^2) @ t=6, gamma=0.17, alpha=0.015
7.549879114430776E-4
% TCTL (m^2) @ t=7, gamma=0.17, alpha=0.015
0.9701034873645971
% TCN (m^2) @ t=7, gamma=0.17, alpha=0.015
8.174125846400113E-4
% TCTL (m^2) @ t=8, gamma=0.17, alpha=0.015
1.002555182008641
% TCN (m^2) @ t=8, gamma=0.17, alpha=0.015
8.848754010110831E-4
% TCTL (m^2) @ t=9, gamma=0.17, alpha=0.015
1.0406411892836207
% TCN (m^2) @ t=9, gamma=0.17, alpha=0.015
9.578204839432085E-4
% TCTL (m^2) @ t=10, gamma=0.17, alpha=0.015
1.0845233411735533
% TCN (m^2) @ t=10, gamma=0.17, alpha=0.015
0.0010367137424786266
% TCTL (m^2) @ t=11, gamma=0.17, alpha=0.015
1.1343345438171706
% TCN (m^2) @ t=11, gamma=0.17, alpha=0.015
0.0011220319701075786
% TCTL (m^2) @ t=12, gamma=0.17, alpha=0.015
1.1902429107546681
% TCN (m^2) @ t=12, gamma=0.17, alpha=0.015
0.0012142471202515911
% TCTL (m^2) @ t=13, gamma=0.17, alpha=0.015
1.2524507023550961
% TCN (m^2) @ t=13, gamma=0.17, alpha=0.015
0.0013138247289497282
% TCTL (m^2) @ t=14, gamma=0.17, alpha=0.015
1.3211086854015022
% TCN (m^2) @ t=14, gamma=0.17, alpha=0.015
0.0014212415506747295
% TCTL (m^2) @ t=15, gamma=0.17, alpha=0.015
1.3966307867963181
% TCN (m^2) @ t=15, gamma=0.17, alpha=0.015
0.0015368221398006743
% TCTL (m^2) @ t=16, gamma=0.17, alpha=0.015
1.479186575272689
% TCN (m^2) @ t=16, gamma=0.17, alpha=0.015
0.0016610385541967932
% TCTL (m^2) @ t=17, gamma=0.17, alpha=0.015
1.569140605854102
% TCN (m^2) @ t=17, gamma=0.17, alpha=0.015
0.0017940403981454851
% TCTL (m^2) @ t=18, gamma=0.17, alpha=0.015
1.666945732503625
% TCN (m^2) @ t=18, gamma=0.17, alpha=0.015
0.0019357810824480023
% TCTL (m^2) @ t=19, gamma=0.17, alpha=0.015
1.7728670391400345
% TCN (m^2) @ t=19, gamma=0.17, alpha=0.015
0.0020866284554946464
% TCTL (m^2) @ t=20, gamma=0.17, alpha=0.015
1.887587601008711
% TCN (m^2) @ t=20, gamma=0.17, alpha=0.015
0.0022454973134284164
% TCTL (m^2) @ t=21, gamma=0.17, alpha=0.015
2.011438193278899
% TCN (m^2) @ t=21, gamma=0.17, alpha=0.015
0.002412611599461783
% TCTL (m^2) @ t=22, gamma=0.17, alpha=0.015
2.14506036098415
% TCN (m^2) @ t=22, gamma=0.17, alpha=0.015
0.0025871333291313824
% TCTL (m^2) @ t=23, gamma=0.17, alpha=0.015
2.2893431191629596
% TCN (m^2) @ t=23, gamma=0.17, alpha=0.015
0.002767414424696863
% TCTL (m^2) @ t=24, gamma=0.17, alpha=0.015
2.4449703068668134
% TCN (m^2) @ t=24, gamma=0.17, alpha=0.015
0.002952470517529122
% TCTL (m^2) @ t=25, gamma=0.17, alpha=0.015
2.612595077099261
% TCN (m^2) @ t=25, gamma=0.17, alpha=0.015
0.003140872541118699
% TCTL (m^2) @ t=26, gamma=0.17, alpha=0.015
2.793071388039554
% TCN (m^2) @ t=26, gamma=0.17, alpha=0.015
0.0033308880583573152
% TCTL (m^2) @ t=27, gamma=0.17, alpha=0.015
2.9871822774852443
% TCN (m^2) @ t=27, gamma=0.17, alpha=0.015
0.00352052036642995
% TCTL (m^2) @ t=28, gamma=0.17, alpha=0.015
3.195677660092482
% TCN (m^2) @ t=28, gamma=0.17, alpha=0.015
0.003707482059058774
% TCTL (m^2) @ t=29, gamma=0.17, alpha=0.015
3.4194270996168
% TCN (m^2) @ t=29, gamma=0.17, alpha=0.015
0.0038893138571206125
% TCTL (m^2) @ t=30, gamma=0.17, alpha=0.015
3.6596345353787183
% TCN (m^2) @ t=30, gamma=0.17, alpha=0.015
0.004063289118300707
% TCTL (m^2) @ t=31, gamma=0.17, alpha=0.015
3.917301003578208
% TCN (m^2) @ t=31, gamma=0.17, alpha=0.015
0.0042264326341290015
% TCTL (m^2) @ t=32, gamma=0.17, alpha=0.015
4.193742522880986
% TCN (m^2) @ t=32, gamma=0.17, alpha=0.015
0.004375293614234513
% TCTL (m^2) @ t=33, gamma=0.17, alpha=0.015
4.490299092747288
% TCN (m^2) @ t=33, gamma=0.17, alpha=0.015
0.004506495009683492
% TCTL (m^2) @ t=34, gamma=0.17, alpha=0.015
4.808105962012997
% TCN (m^2) @ t=34, gamma=0.17, alpha=0.015
0.004617025974277094
% TCTL (m^2) @ t=35, gamma=0.17, alpha=0.015
5.148966782787684
% TCN (m^2) @ t=35, gamma=0.17, alpha=0.015
0.004704281981978787
% TCTL (m^2) @ t=36, gamma=0.17, alpha=0.015
5.514087043757046
% TCN (m^2) @ t=36, gamma=0.17, alpha=0.015
0.004765087396878188
% TCTL (m^2) @ t=37, gamma=0.17, alpha=0.015
5.905223244699393
% TCN (m^2) @ t=37, gamma=0.17, alpha=0.015
0.004796969829592351
% TCTL (m^2) @ t=38, gamma=0.17, alpha=0.015
6.324263421439506
% TCN (m^2) @ t=38, gamma=0.17, alpha=0.015
0.004797644176166423
% TCTL (m^2) @ t=39, gamma=0.17, alpha=0.015
6.772702244588547
% TCN (m^2) @ t=39, gamma=0.17, alpha=0.015
0.004764429929466842
% TCTL (m^2) @ t=40, gamma=0.17, alpha=0.015
7.2530518863393585
% TCN (m^2) @ t=40, gamma=0.17, alpha=0.015
0.004699608358528071
% TCTL (m^2) @ t=41, gamma=0.17, alpha=0.015
7.766933188458498
% TCN (m^2) @ t=41, gamma=0.17, alpha=0.015
0.004600533129209223
% TCTL (m^2) @ t=42, gamma=0.17, alpha=0.015
8.31648840713617
% TCN (m^2) @ t=42, gamma=0.17, alpha=0.015
0.004468205887352262
% TCTL (m^2) @ t=43, gamma=0.17, alpha=0.015
8.903930994610459
% TCN (m^2) @ t=43, gamma=0.17, alpha=0.015
0.004304229828890456
% TCTL (m^2) @ t=44, gamma=0.17, alpha=0.015
9.531512121448142
% TCN (m^2) @ t=44, gamma=0.17, alpha=0.015
0.00410849892641047
% TCTL (m^2) @ t=45, gamma=0.17, alpha=0.015
10.204633914576267
% TCN (m^2) @ t=45, gamma=0.17, alpha=0.015
0.0038907232875741464
% TCTL (m^2) @ t=46, gamma=0.17, alpha=0.015
10.920709660723894
% TCN (m^2) @ t=46, gamma=0.17, alpha=0.015
0.0036465449161857326
% TCTL (m^2) @ t=47, gamma=0.17, alpha=0.015
11.681678588876899
% TCN (m^2) @ t=47, gamma=0.17, alpha=0.015
0.0033853572180817682
% TCTL (m^2) @ t=48, gamma=0.17, alpha=0.015
12.488627540472624
% TCN (m^2) @ t=48, gamma=0.17, alpha=0.015
0.003112424730237977
% TCTL (m^2) @ t=49, gamma=0.17, alpha=0.015
13.340236660324525
% TCN (m^2) @ t=49, gamma=0.17, alpha=0.015
0.0028250883473893394
% TCTL (m^2) @ t=50, gamma=0.17, alpha=0.015
14.231363544130154
% TCN (m^2) @ t=50, gamma=0.17, alpha=0.015
0.0025444798548260013
% TCTL (m^2) @ t=51, gamma=0.17, alpha=0.015
15.164329669514677
% TCN (m^2) @ t=51, gamma=0.17, alpha=0.015
0.0022610595579133815
% TCTL (m^2) @ t=52, gamma=0.17, alpha=0.015
16.117837672794728
% TCN (m^2) @ t=52, gamma=0.17, alpha=0.015
0.0019847055494978923
% TCTL (m^2) @ t=53, gamma=0.17, alpha=0.015
17.08117645709153
% TCN (m^2) @ t=53, gamma=0.17, alpha=0.015
0.0017203858251975605
% TCTL (m^2) @ t=54, gamma=0.17, alpha=0.015
18.05783318823186
% TCN (m^2) @ t=54, gamma=0.17, alpha=0.015
0.0014646855136684184
% TCTL (m^2) @ t=55, gamma=0.17, alpha=0.015
18.97044782710444
% TCN (m^2) @ t=55, gamma=0.17, alpha=0.015
0.0012297848419312914
% TCTL (m^2) @ t=56, gamma=0.17, alpha=0.015
19.818385153388483
% TCN (m^2) @ t=56, gamma=0.17, alpha=0.015
0.0010157838245131307
% TCTL (m^2) @ t=57, gamma=0.17, alpha=0.015
20.5054121767747
% TCN (m^2) @ t=57, gamma=0.17, alpha=0.015
8.242391983148223E-4
% TCTL (m^2) @ t=58, gamma=0.17, alpha=0.015
20.930693616206234
% TCN (m^2) @ t=58, gamma=0.17, alpha=0.015
6.565750003884849E-4
% TCTL (m^2) @ t=59, gamma=0.17, alpha=0.015
21.053095883210805
% TCN (m^2) @ t=59, gamma=0.17, alpha=0.015
5.152722647635782E-4
% TCTL (m^2) @ t=60, gamma=0.17, alpha=0.015
20.78215772992762
% TCN (m^2) @ t=60, gamma=0.17, alpha=0.015
3.944039617218885E-4
% TCTL (m^2) @ t=61, gamma=0.17, alpha=0.015
20.053994579598353
% TCN (m^2) @ t=61, gamma=0.17, alpha=0.015
2.963873071964917E-4
% TCTL (m^2) @ t=62, gamma=0.17, alpha=0.015
19.023183873319237
% TCN (m^2) @ t=62, gamma=0.17, alpha=0.015
2.189541772482534E-4
% TCTL (m^2) @ t=63, gamma=0.17, alpha=0.015
17.712106848876115
% TCN (m^2) @ t=63, gamma=0.17, alpha=0.015
1.6083098608341337E-4
% TCTL (m^2) @ t=64, gamma=0.17, alpha=0.015
16.31413804037154
% TCN (m^2) @ t=64, gamma=0.17, alpha=0.015
1.1692469281067148E-4
% TCTL (m^2) @ t=65, gamma=0.17, alpha=0.015
14.891203285608682
% TCN (m^2) @ t=65, gamma=0.17, alpha=0.015
8.501306465531045E-5
% TCTL (m^2) @ t=66, gamma=0.17, alpha=0.015
13.524687897769079
% TCN (m^2) @ t=66, gamma=0.17, alpha=0.015
6.20763723360238E-5
% TCTL (m^2) @ t=67, gamma=0.17, alpha=0.015
12.235503912136549
% TCN (m^2) @ t=67, gamma=0.17, alpha=0.015
4.550827637031106E-5
% TCTL (m^2) @ t=68, gamma=0.17, alpha=0.015
11.053185090310627
% TCN (m^2) @ t=68, gamma=0.17, alpha=0.015
3.285156069767075E-5
% TCTL (m^2) @ t=69, gamma=0.17, alpha=0.015
9.976894024263906
% TCN (m^2) @ t=69, gamma=0.17, alpha=0.015
2.403840819536805E-5
% TCTL (m^2) @ t=70, gamma=0.17, alpha=0.015
9.014382927911358
% TCN (m^2) @ t=70, gamma=0.17, alpha=0.015
1.788514647837283E-5
% TCTL (m^2) @ t=71, gamma=0.17, alpha=0.015
8.153699786461383
% TCN (m^2) @ t=71, gamma=0.17, alpha=0.015
1.398208346626666E-5
% TCTL (m^2) @ t=72, gamma=0.17, alpha=0.015
7.377534844396624
% TCN (m^2) @ t=72, gamma=0.17, alpha=0.015
1.1137175593648292E-5
% TCTL (m^2) @ t=73, gamma=0.17, alpha=0.015
6.673782272150742
% TCN (m^2) @ t=73, gamma=0.17, alpha=0.015
8.792458721661249E-6
% TCTL (m^2) @ t=74, gamma=0.17, alpha=0.015
6.036837919637161
% TCN (m^2) @ t=74, gamma=0.17, alpha=0.015
7.041805569933602E-6
% TCTL (m^2) @ t=75, gamma=0.17, alpha=0.015
5.460226728741848
% TCN (m^2) @ t=75, gamma=0.17, alpha=0.015
5.7593769287475545E-6
% TCTL (m^2) @ t=76, gamma=0.17, alpha=0.015
4.937703987552508
% TCN (m^2) @ t=76, gamma=0.17, alpha=0.015
4.8309011642141886E-6
% TCTL (m^2) @ t=77, gamma=0.17, alpha=0.015
4.46524581564046
% TCN (m^2) @ t=77, gamma=0.17, alpha=0.015
4.183151529380976E-6
% TCTL (m^2) @ t=78, gamma=0.17, alpha=0.015
4.038216144819961
% TCN (m^2) @ t=78, gamma=0.17, alpha=0.015
3.740375498875908E-6
% TCTL (m^2) @ t=79, gamma=0.17, alpha=0.015
3.6524543252010613
% TCN (m^2) @ t=79, gamma=0.17, alpha=0.015
3.44277132819573E-6
% TCTL (m^2) @ t=80, gamma=0.17, alpha=0.015
3.304144616110656
% TCN (m^2) @ t=80, gamma=0.17, alpha=0.015
3.238770980044041E-6
% TCTL (m^2) @ t=81, gamma=0.17, alpha=0.015
2.989634053820357
% TCN (m^2) @ t=81, gamma=0.17, alpha=0.015
3.107391133884616E-6
% TCTL (m^2) @ t=82, gamma=0.17, alpha=0.015
2.705304643666312
% TCN (m^2) @ t=82, gamma=0.17, alpha=0.015
3.0336463424949584E-6
% TCTL (m^2) @ t=83, gamma=0.17, alpha=0.015
2.4481626058056314
% TCN (m^2) @ t=83, gamma=0.17, alpha=0.015
3.0187262248503146E-6
% TCTL (m^2) @ t=84, gamma=0.17, alpha=0.015
2.2154940152749725
% TCN (m^2) @ t=84, gamma=0.17, alpha=0.015
3.0664244745440607E-6
% TCTL (m^2) @ t=85, gamma=0.17, alpha=0.015
2.0052926053845894
% TCN (m^2) @ t=85, gamma=0.17, alpha=0.015
3.17536114138321E-6
% TCTL (m^2) @ t=86, gamma=0.17, alpha=0.015
1.8152826320483906
% TCN (m^2) @ t=86, gamma=0.17, alpha=0.015
3.345984449919258E-6
% TCTL (m^2) @ t=87, gamma=0.17, alpha=0.015
1.6434462503355909
% TCN (m^2) @ t=87, gamma=0.17, alpha=0.015
3.5807695583618343E-6
% TCTL (m^2) @ t=88, gamma=0.17, alpha=0.015
1.4879584468960163
% TCN (m^2) @ t=88, gamma=0.17, alpha=0.015
3.884251800899533E-6
% TCTL (m^2) @ t=89, gamma=0.17, alpha=0.015
1.3468519262223464
% TCN (m^2) @ t=89, gamma=0.17, alpha=0.015
4.259773476696817E-6
% TCTL (m^2) @ t=90, gamma=0.17, alpha=0.015
1.2195303418901184
% TCN (m^2) @ t=90, gamma=0.17, alpha=0.015
4.727715084563102E-6
% TCTL (m^2) @ t=91, gamma=0.17, alpha=0.015
1.1040406377731093
% TCN (m^2) @ t=91, gamma=0.17, alpha=0.015
5.29139480362116E-6
% TCTL (m^2) @ t=92, gamma=0.17, alpha=0.015
0.9996510425154432
% TCN (m^2) @ t=92, gamma=0.17, alpha=0.015
5.9789038960005914E-6
% TCTL (m^2) @ t=93, gamma=0.17, alpha=0.015
0.9051008658315942
% TCN (m^2) @ t=93, gamma=0.17, alpha=0.015
6.805671288170511E-6
% TCTL (m^2) @ t=94, gamma=0.17, alpha=0.015
0.8194415520866137
% TCN (m^2) @ t=94, gamma=0.17, alpha=0.015
7.79978722969325E-6
% TCTL (m^2) @ t=95, gamma=0.17, alpha=0.015
0.7419978923062878
% TCN (m^2) @ t=95, gamma=0.17, alpha=0.015
8.99877806506208E-6
% TCTL (m^2) @ t=96, gamma=0.17, alpha=0.015
0.6717479617328005
% TCN (m^2) @ t=96, gamma=0.17, alpha=0.015
1.0430050629869644E-5
% TCTL (m^2) @ t=97, gamma=0.17, alpha=0.015
0.6083037877491971
% TCN (m^2) @ t=97, gamma=0.17, alpha=0.015
1.2161342660489445E-5
% TCTL (m^2) @ t=98, gamma=0.17, alpha=0.015
0.5507485689277207
% TCN (m^2) @ t=98, gamma=0.17, alpha=0.015
1.4222467339525328E-5
% TCTL (m^2) @ t=99, gamma=0.17, alpha=0.015
0.4986413577957918
% TCN (m^2) @ t=99, gamma=0.17, alpha=0.015
1.670074179293647E-5
% TCTL (m^2) @ t=100, gamma=0.17, alpha=0.015
0.45142542085933113
% TCN (m^2) @ t=100, gamma=0.17, alpha=0.015
1.966672531004898E-5
% TCTL (m^2) @ t=101, gamma=0.17, alpha=0.015
0.4086448390333528
% TCN (m^2) @ t=101, gamma=0.17, alpha=0.015
2.3217049403556138E-5
% TCTL (m^2) @ t=102, gamma=0.17, alpha=0.015
0.3699404440367212
% TCN (m^2) @ t=102, gamma=0.17, alpha=0.015
2.7471604537342263E-5
% TCTL (m^2) @ t=103, gamma=0.17, alpha=0.015
0.3349616895538863
% TCN (m^2) @ t=103, gamma=0.17, alpha=0.015
3.256171024984342E-5
% TCTL (m^2) @ t=104, gamma=0.17, alpha=0.015
0.3032802852666424
% TCN (m^2) @ t=104, gamma=0.17, alpha=0.015
3.868675455096792E-5
% TCTL (m^2) @ t=105, gamma=0.17, alpha=0.015
0.27463082890898577
% TCN (m^2) @ t=105, gamma=0.17, alpha=0.015
4.603049053295338E-5
% TCTL (m^2) @ t=106, gamma=0.17, alpha=0.015
0.2487493985062257
% TCN (m^2) @ t=106, gamma=0.17, alpha=0.015
5.4812152736621524E-5
% TCTL (m^2) @ t=107, gamma=0.17, alpha=0.015
0.22540997015114556
% TCN (m^2) @ t=107, gamma=0.17, alpha=0.015
6.527492397370366E-5
% TCTL (m^2) @ t=108, gamma=0.17, alpha=0.015
0.20444539136881323
% TCN (m^2) @ t=108, gamma=0.17, alpha=0.015
7.781275435124617E-5
% TCTL (m^2) @ t=109, gamma=0.17, alpha=0.015
0.18572042989011933
% TCN (m^2) @ t=109, gamma=0.17, alpha=0.015
9.280739608803476E-5
% TCTL (m^2) @ t=110, gamma=0.17, alpha=0.015
0.16912812069570393
% TCN (m^2) @ t=110, gamma=0.17, alpha=0.015
1.1060631529314326E-4
% TCTL (m^2) @ t=111, gamma=0.17, alpha=0.015
0.15460805297622449
% TCN (m^2) @ t=111, gamma=0.17, alpha=0.015
1.316332671875628E-4
% TCTL (m^2) @ t=112, gamma=0.17, alpha=0.015
0.1419546424072872
% TCN (m^2) @ t=112, gamma=0.17, alpha=0.015
1.5667256063095486E-4
% TCTL (m^2) @ t=113, gamma=0.17, alpha=0.015
0.13103602833062097
% TCN (m^2) @ t=113, gamma=0.17, alpha=0.015
1.8648433593498363E-4
% TCTL (m^2) @ t=114, gamma=0.17, alpha=0.015
0.12188345119786326
% TCN (m^2) @ t=114, gamma=0.17, alpha=0.015
2.2164747976324156E-4
% TCTL (m^2) @ t=115, gamma=0.17, alpha=0.015
0.11448117954582637
% TCN (m^2) @ t=115, gamma=0.17, alpha=0.015
2.629288384440881E-4
% TCTL (m^2) @ t=116, gamma=0.17, alpha=0.015
0.10872479716825323
% TCN (m^2) @ t=116, gamma=0.17, alpha=0.015
3.115624267067637E-4
% TCTL (m^2) @ t=117, gamma=0.17, alpha=0.015
0.10453719959160407
% TCN (m^2) @ t=117, gamma=0.17, alpha=0.015
3.6883651358124946E-4
% TCTL (m^2) @ t=118, gamma=0.17, alpha=0.015
0.10196786355089082
% TCN (m^2) @ t=118, gamma=0.17, alpha=0.015
4.357402516082878E-4
% TCTL (m^2) @ t=119, gamma=0.17, alpha=0.015
0.10102935958551189
% TCN (m^2) @ t=119, gamma=0.17, alpha=0.015
5.135456449889735E-4
% TCTL (m^2) @ t=120, gamma=0.17, alpha=0.015
0.10151638632963501
% TCN (m^2) @ t=120, gamma=0.17, alpha=0.015
6.047552041087724E-4
% TCTL (m^2) @ t=121, gamma=0.17, alpha=0.015
0.10319109280273168
% TCN (m^2) @ t=121, gamma=0.17, alpha=0.015
7.12202437649798E-4
% TCTL (m^2) @ t=122, gamma=0.17, alpha=0.015
0.10609622339058147
% TCN (m^2) @ t=122, gamma=0.17, alpha=0.015
8.375319254432876E-4
% TCTL (m^2) @ t=123, gamma=0.17, alpha=0.015
0.11014039031280926
% TCN (m^2) @ t=123, gamma=0.17, alpha=0.015
9.832123018276159E-4
% TCTL (m^2) @ t=124, gamma=0.17, alpha=0.015
0.11525628145955646
% TCN (m^2) @ t=124, gamma=0.17, alpha=0.015
0.0011525339841700903
% TCTL (m^2) @ t=125, gamma=0.17, alpha=0.015
0.12138522787837619
% TCN (m^2) @ t=125, gamma=0.17, alpha=0.015
0.0013492693418679278
% TCTL (m^2) @ t=126, gamma=0.17, alpha=0.015
0.1284239353520385
% TCN (m^2) @ t=126, gamma=0.17, alpha=0.015
0.0015764997013207693
% TCTL (m^2) @ t=127, gamma=0.17, alpha=0.015
0.13628615321426307
% TCN (m^2) @ t=127, gamma=0.17, alpha=0.015
0.0018379733214671165
% TCTL (m^2) @ t=128, gamma=0.17, alpha=0.015
0.1450358348267138
% TCN (m^2) @ t=128, gamma=0.17, alpha=0.015
0.0021392016997359284
% TCTL (m^2) @ t=129, gamma=0.17, alpha=0.015
0.154614088893324
% TCN (m^2) @ t=129, gamma=0.17, alpha=0.015
0.0024847495556509
% TCTL (m^2) @ t=130, gamma=0.17, alpha=0.015
0.16497644543614734
% TCN (m^2) @ t=130, gamma=0.17, alpha=0.015
0.0028795971997582024
% TCTL (m^2) @ t=131, gamma=0.17, alpha=0.015
0.17613137660162834
% TCN (m^2) @ t=131, gamma=0.17, alpha=0.015
0.0033296457088894758
% TCTL (m^2) @ t=132, gamma=0.17, alpha=0.015
0.18823365635045508
% TCN (m^2) @ t=132, gamma=0.17, alpha=0.015
0.003843104150403071
% TCTL (m^2) @ t=133, gamma=0.17, alpha=0.015
0.2012759658475041
% TCN (m^2) @ t=133, gamma=0.17, alpha=0.015
0.004426134578488447
% TCTL (m^2) @ t=134, gamma=0.17, alpha=0.015
0.2153304856063505
% TCN (m^2) @ t=134, gamma=0.17, alpha=0.015
0.005086263684849699
% TCTL (m^2) @ t=135, gamma=0.17, alpha=0.015
0.23048119157595304
% TCN (m^2) @ t=135, gamma=0.17, alpha=0.015
0.005832479486765747
% TCTL (m^2) @ t=136, gamma=0.17, alpha=0.015
0.2468283575049804
% TCN (m^2) @ t=136, gamma=0.17, alpha=0.015
0.006674392777263869
% TCTL (m^2) @ t=137, gamma=0.17, alpha=0.015
0.2644938999006602
% TCN (m^2) @ t=137, gamma=0.17, alpha=0.015
0.0076212416449672315
% TCTL (m^2) @ t=138, gamma=0.17, alpha=0.015
0.2836138709822126
% TCN (m^2) @ t=138, gamma=0.17, alpha=0.015
0.008683289635628234
% TCTL (m^2) @ t=139, gamma=0.17, alpha=0.015
0.3041655791141513
% TCN (m^2) @ t=139, gamma=0.17, alpha=0.015
0.009871256889432758
% TCTL (m^2) @ t=140, gamma=0.17, alpha=0.015
0.3263073547222814
% TCN (m^2) @ t=140, gamma=0.17, alpha=0.015
0.011196578250419403
% TCTL (m^2) @ t=141, gamma=0.17, alpha=0.015
0.350162555961748
% TCN (m^2) @ t=141, gamma=0.17, alpha=0.015
0.012671239182417695
% TCTL (m^2) @ t=142, gamma=0.17, alpha=0.015
0.3758226642206023
% TCN (m^2) @ t=142, gamma=0.17, alpha=0.015
0.014307097687856315
% TCTL (m^2) @ t=143, gamma=0.17, alpha=0.015
0.4033017893895072
% TCN (m^2) @ t=143, gamma=0.17, alpha=0.015
0.016114697721010072
% TCTL (m^2) @ t=144, gamma=0.17, alpha=0.015
0.4327316521170104
% TCN (m^2) @ t=144, gamma=0.17, alpha=0.015
0.01810768114575076
% TCTL (m^2) @ t=145, gamma=0.17, alpha=0.015
0.4642002122645178
% TCN (m^2) @ t=145, gamma=0.17, alpha=0.015
0.020299136303585284
% TCTL (m^2) @ t=146, gamma=0.17, alpha=0.015
0.497961625849335
% TCN (m^2) @ t=146, gamma=0.17, alpha=0.015
0.02269860146664891
% TCTL (m^2) @ t=147, gamma=0.17, alpha=0.015
0.5341861134668036
% TCN (m^2) @ t=147, gamma=0.17, alpha=0.015
0.02531671487956989
% TCTL (m^2) @ t=148, gamma=0.17, alpha=0.015
0.5729498020439368
% TCN (m^2) @ t=148, gamma=0.17, alpha=0.015
0.028166436555840633
% TCTL (m^2) @ t=149, gamma=0.17, alpha=0.015
0.6143877923858839
% TCN (m^2) @ t=149, gamma=0.17, alpha=0.015
0.0312593434314647
% TCTL (m^2) @ t=150, gamma=0.17, alpha=0.015
0.6587542439765954
% TCN (m^2) @ t=150, gamma=0.17, alpha=0.015
0.034597668240083895
% TCTL (m^2) @ t=151, gamma=0.17, alpha=0.015
0.7061489267709237
% TCN (m^2) @ t=151, gamma=0.17, alpha=0.015
0.03819576082445775
% TCTL (m^2) @ t=152, gamma=0.17, alpha=0.015
0.7567241805771554
% TCN (m^2) @ t=152, gamma=0.17, alpha=0.015
0.04206384513452048
% TCTL (m^2) @ t=153, gamma=0.17, alpha=0.015
0.8106947227651589
% TCN (m^2) @ t=153, gamma=0.17, alpha=0.015
0.046203587001671174
% TCTL (m^2) @ t=154, gamma=0.17, alpha=0.015
0.8683423947196498
% TCN (m^2) @ t=154, gamma=0.17, alpha=0.015
0.05060744293169383
% TCTL (m^2) @ t=155, gamma=0.17, alpha=0.015
0.9297859971694802
% TCN (m^2) @ t=155, gamma=0.17, alpha=0.015
0.05529023839164088
% TCTL (m^2) @ t=156, gamma=0.17, alpha=0.015
0.9952093894100369
% TCN (m^2) @ t=156, gamma=0.17, alpha=0.015
0.060257872899712836
% TCTL (m^2) @ t=157, gamma=0.17, alpha=0.015
1.0650134348984097
% TCN (m^2) @ t=157, gamma=0.17, alpha=0.015
0.0654800228039539
% TCTL (m^2) @ t=158, gamma=0.17, alpha=0.015
1.1394320140819285
% TCN (m^2) @ t=158, gamma=0.17, alpha=0.015
0.07095423789929726
% TCTL (m^2) @ t=159, gamma=0.17, alpha=0.015
1.218648815747726
% TCN (m^2) @ t=159, gamma=0.17, alpha=0.015
0.0766864461658367
% TCTL (m^2) @ t=160, gamma=0.17, alpha=0.015
1.302933544834521
% TCN (m^2) @ t=160, gamma=0.17, alpha=0.015
0.08266772714463186
% TCTL (m^2) @ t=161, gamma=0.17, alpha=0.015
1.3929446032441106
% TCN (m^2) @ t=161, gamma=0.17, alpha=0.015
0.0888190264245215
% TCTL (m^2) @ t=162, gamma=0.17, alpha=0.015
1.488798775108263
% TCN (m^2) @ t=162, gamma=0.17, alpha=0.015
0.09515901558248596
% TCTL (m^2) @ t=163, gamma=0.17, alpha=0.015
1.5908020810078596
% TCN (m^2) @ t=163, gamma=0.17, alpha=0.015
0.10167222160128206
% TCTL (m^2) @ t=164, gamma=0.17, alpha=0.015
1.7001409770238736
% TCN (m^2) @ t=164, gamma=0.17, alpha=0.015
0.1083067949274997
% TCTL (m^2) @ t=165, gamma=0.17, alpha=0.015
1.818685747995262
% TCN (m^2) @ t=165, gamma=0.17, alpha=0.015
0.11498263257912032
% TCTL (m^2) @ t=166, gamma=0.17, alpha=0.015
1.9469431564993216
% TCN (m^2) @ t=166, gamma=0.17, alpha=0.015
0.12167596757700011
% TCTL (m^2) @ t=167, gamma=0.17, alpha=0.015
2.0861408085110336
% TCN (m^2) @ t=167, gamma=0.17, alpha=0.015
0.12833325019706734
% TCTL (m^2) @ t=168, gamma=0.17, alpha=0.015
2.235599941949486
% TCN (m^2) @ t=168, gamma=0.17, alpha=0.015
0.1348944366341908
% TCTL (m^2) @ t=169, gamma=0.17, alpha=0.015
2.396216870315019
% TCN (m^2) @ t=169, gamma=0.17, alpha=0.015
0.14129533406611677
% TCTL (m^2) @ t=170, gamma=0.17, alpha=0.015
2.568912998900456
% TCN (m^2) @ t=170, gamma=0.17, alpha=0.015
0.14746655660063762
% TCTL (m^2) @ t=171, gamma=0.17, alpha=0.015
2.7544028542579753
% TCN (m^2) @ t=171, gamma=0.17, alpha=0.015
0.15333330998826905
% TCTL (m^2) @ t=172, gamma=0.17, alpha=0.015
2.953739994748556
% TCN (m^2) @ t=172, gamma=0.17, alpha=0.015
0.15881548630237052
% TCTL (m^2) @ t=173, gamma=0.17, alpha=0.015
3.167547319592516
% TCN (m^2) @ t=173, gamma=0.17, alpha=0.015
0.16382787038681795
% TCTL (m^2) @ t=174, gamma=0.17, alpha=0.015
3.396611116945328
% TCN (m^2) @ t=174, gamma=0.17, alpha=0.015
0.16827998051952686
% TCTL (m^2) @ t=175, gamma=0.17, alpha=0.015
3.6422022519732673
% TCN (m^2) @ t=175, gamma=0.17, alpha=0.015
0.17209807339259822
% TCTL (m^2) @ t=176, gamma=0.17, alpha=0.015
3.9057233622317873
% TCN (m^2) @ t=176, gamma=0.17, alpha=0.015
0.17520878373846188
% TCTL (m^2) @ t=177, gamma=0.17, alpha=0.015
4.1881173152013424
% TCN (m^2) @ t=177, gamma=0.17, alpha=0.015
0.17751169312496295
% TCTL (m^2) @ t=178, gamma=0.17, alpha=0.015
4.490622759009372
% TCN (m^2) @ t=178, gamma=0.17, alpha=0.015
0.17891436660603488
% TCTL (m^2) @ t=179, gamma=0.17, alpha=0.015
4.815806842781418
% TCN (m^2) @ t=179, gamma=0.17, alpha=0.015
0.17942142068174868
% TCTL (m^2) @ t=180, gamma=0.17, alpha=0.015
5.164597656360355
% TCN (m^2) @ t=180, gamma=0.17, alpha=0.015
0.17893223034127032
% TCTL (m^2) @ t=181, gamma=0.17, alpha=0.015
5.538310860823595
% TCN (m^2) @ t=181, gamma=0.17, alpha=0.015
0.17736834512224625
% TCTL (m^2) @ t=182, gamma=0.17, alpha=0.015
5.9388146432780875
% TCN (m^2) @ t=182, gamma=0.17, alpha=0.015
0.1747088132950102
% TCTL (m^2) @ t=183, gamma=0.17, alpha=0.015
6.369162659828763
% TCN (m^2) @ t=183, gamma=0.17, alpha=0.015
0.17106321347863823
% TCTL (m^2) @ t=184, gamma=0.17, alpha=0.015
6.830311698878232
% TCN (m^2) @ t=184, gamma=0.17, alpha=0.015
0.16631024109499626
% TCTL (m^2) @ t=185, gamma=0.17, alpha=0.015
7.32400941726751
% TCN (m^2) @ t=185, gamma=0.17, alpha=0.015
0.16041581297177815
% TCTL (m^2) @ t=186, gamma=0.17, alpha=0.015
7.854594005183705
% TCN (m^2) @ t=186, gamma=0.17, alpha=0.015
0.15369091377982036
% TCTL (m^2) @ t=187, gamma=0.17, alpha=0.015
8.423235316899577
% TCN (m^2) @ t=187, gamma=0.17, alpha=0.015
0.1460244950816172
% TCTL (m^2) @ t=188, gamma=0.17, alpha=0.015
9.032246920881704
% TCN (m^2) @ t=188, gamma=0.17, alpha=0.015
0.13745672995375188
% TCTL (m^2) @ t=189, gamma=0.17, alpha=0.015
9.686695638914227
% TCN (m^2) @ t=189, gamma=0.17, alpha=0.015
0.12836645722604922
% TCTL (m^2) @ t=190, gamma=0.17, alpha=0.015
10.388371820888853
% TCN (m^2) @ t=190, gamma=0.17, alpha=0.015
0.11872949112672393
% TCTL (m^2) @ t=191, gamma=0.17, alpha=0.015
11.140317415560466
% TCN (m^2) @ t=191, gamma=0.17, alpha=0.015
0.1086643312695931
% TCTL (m^2) @ t=192, gamma=0.17, alpha=0.015
11.948104926139653
% TCN (m^2) @ t=192, gamma=0.17, alpha=0.015
0.09846872728979027
% TCTL (m^2) @ t=193, gamma=0.17, alpha=0.015
12.814219426785039
% TCN (m^2) @ t=193, gamma=0.17, alpha=0.015
0.08822173298598959
% TCTL (m^2) @ t=194, gamma=0.17, alpha=0.015
13.742529507330254
% TCN (m^2) @ t=194, gamma=0.17, alpha=0.015
0.078076899051018
% TCTL (m^2) @ t=195, gamma=0.17, alpha=0.015
14.739691688089902
% TCN (m^2) @ t=195, gamma=0.17, alpha=0.015
0.0682199241141813
% TCTL (m^2) @ t=196, gamma=0.17, alpha=0.015
15.80879727202083
% TCN (m^2) @ t=196, gamma=0.17, alpha=0.015
0.058795395886872076
% TCTL (m^2) @ t=197, gamma=0.17, alpha=0.015
16.955984017840258
% TCN (m^2) @ t=197, gamma=0.17, alpha=0.015
0.04998380493160474
% TCTL (m^2) @ t=198, gamma=0.17, alpha=0.015
18.190289712203565
% TCN (m^2) @ t=198, gamma=0.17, alpha=0.015
0.041909914457853484
% TCTL (m^2) @ t=199, gamma=0.17, alpha=0.015
19.510682078857894
% TCN (m^2) @ t=199, gamma=0.17, alpha=0.015
0.034531439706880274
% TCTL (m^2) @ t=200, gamma=0.17, alpha=0.015
20.93197791765548
% TCN (m^2) @ t=200, gamma=0.17, alpha=0.015
0.02802641542837314
% TCTL (m^2) @ t=0, gamma=0.17, alpha=0.0175
0.8999955627161023
% TCN (m^2) @ t=0, gamma=0.17, alpha=0.0175
4.6384710335203145E-4
% TCTL (m^2) @ t=1, gamma=0.17, alpha=0.0175
0.8942586080969417
% TCN (m^2) @ t=1, gamma=0.17, alpha=0.0175
5.211599851721999E-4
% TCTL (m^2) @ t=2, gamma=0.17, alpha=0.0175
0.8971199166950303
% TCN (m^2) @ t=2, gamma=0.17, alpha=0.0175
5.843774071901743E-4
% TCTL (m^2) @ t=3, gamma=0.17, alpha=0.0175
0.907163932959927
% TCN (m^2) @ t=3, gamma=0.17, alpha=0.0175
6.532645565862832E-4
% TCTL (m^2) @ t=4, gamma=0.17, alpha=0.0175
0.9248327232994047
% TCN (m^2) @ t=4, gamma=0.17, alpha=0.0175
7.290887610341549E-4
% TCTL (m^2) @ t=5, gamma=0.17, alpha=0.0175
0.9497712100149882
% TCN (m^2) @ t=5, gamma=0.17, alpha=0.0175
8.123517109176891E-4
% TCTL (m^2) @ t=6, gamma=0.17, alpha=0.0175
0.9818323759382304
% TCN (m^2) @ t=6, gamma=0.17, alpha=0.0175
9.036404020536451E-4
% TCTL (m^2) @ t=7, gamma=0.17, alpha=0.0175
1.0208602268579245
% TCN (m^2) @ t=7, gamma=0.17, alpha=0.0175
0.0010037284482149879
% TCTL (m^2) @ t=8, gamma=0.17, alpha=0.0175
1.0667598945144694
% TCN (m^2) @ t=8, gamma=0.17, alpha=0.0175
0.0011134323558054568
% TCTL (m^2) @ t=9, gamma=0.17, alpha=0.0175
1.119527819105013
% TCN (m^2) @ t=9, gamma=0.17, alpha=0.0175
0.0012338252783944165
% TCTL (m^2) @ t=10, gamma=0.17, alpha=0.0175
1.1791431551578628
% TCN (m^2) @ t=10, gamma=0.17, alpha=0.0175
0.0013657009197833424
% TCTL (m^2) @ t=11, gamma=0.17, alpha=0.0175
1.2457267938106489
% TCN (m^2) @ t=11, gamma=0.17, alpha=0.0175
0.0015100878470476527
% TCTL (m^2) @ t=12, gamma=0.17, alpha=0.0175
1.3193673334925404
% TCN (m^2) @ t=12, gamma=0.17, alpha=0.0175
0.0016679829430076777
% TCTL (m^2) @ t=13, gamma=0.17, alpha=0.0175
1.4001722234532068
% TCN (m^2) @ t=13, gamma=0.17, alpha=0.0175
0.001840382568578437
% TCTL (m^2) @ t=14, gamma=0.17, alpha=0.0175
1.4886068795934404
% TCN (m^2) @ t=14, gamma=0.17, alpha=0.0175
0.0020285528500696474
% TCTL (m^2) @ t=15, gamma=0.17, alpha=0.0175
1.584739076268466
% TCN (m^2) @ t=15, gamma=0.17, alpha=0.0175
0.002233467803074112
% TCTL (m^2) @ t=16, gamma=0.17, alpha=0.0175
1.6890862567221723
% TCN (m^2) @ t=16, gamma=0.17, alpha=0.0175
0.0024557848034032713
% TCTL (m^2) @ t=17, gamma=0.17, alpha=0.0175
1.8020285033477617
% TCN (m^2) @ t=17, gamma=0.17, alpha=0.0175
0.0026963319111130363
% TCTL (m^2) @ t=18, gamma=0.17, alpha=0.0175
1.9239131442330315
% TCN (m^2) @ t=18, gamma=0.17, alpha=0.0175
0.0029556772744532105
% TCTL (m^2) @ t=19, gamma=0.17, alpha=0.0175
2.0554550306181403
% TCN (m^2) @ t=19, gamma=0.17, alpha=0.0175
0.0032327618613564057
% TCTL (m^2) @ t=20, gamma=0.17, alpha=0.0175
2.1969950363145125
% TCN (m^2) @ t=20, gamma=0.17, alpha=0.0175
0.0035284229960455714
% TCTL (m^2) @ t=21, gamma=0.17, alpha=0.0175
2.349501535113157
% TCN (m^2) @ t=21, gamma=0.17, alpha=0.0175
0.003840604042331968
% TCTL (m^2) @ t=22, gamma=0.17, alpha=0.0175
2.5139250917945377
% TCN (m^2) @ t=22, gamma=0.17, alpha=0.0175
0.0041673286477054376
% TCTL (m^2) @ t=23, gamma=0.17, alpha=0.0175
2.691069751683846
% TCN (m^2) @ t=23, gamma=0.17, alpha=0.0175
0.004506838343204483
% TCTL (m^2) @ t=24, gamma=0.17, alpha=0.0175
2.8815006118256203
% TCN (m^2) @ t=24, gamma=0.17, alpha=0.0175
0.004856451619246394
% TCTL (m^2) @ t=25, gamma=0.17, alpha=0.0175
3.0861851128207447
% TCN (m^2) @ t=25, gamma=0.17, alpha=0.0175
0.005213091171790063
% TCTL (m^2) @ t=26, gamma=0.17, alpha=0.0175
3.3060850084473774
% TCN (m^2) @ t=26, gamma=0.17, alpha=0.0175
0.0055729925080424195
% TCTL (m^2) @ t=27, gamma=0.17, alpha=0.0175
3.5421870291883417
% TCN (m^2) @ t=27, gamma=0.17, alpha=0.0175
0.005931920675130228
% TCTL (m^2) @ t=28, gamma=0.17, alpha=0.0175
3.795546814551729