% Model:              MODEL_SC_3_0.15_II.mph
% Version:            COMSOL 5.6.0.401
% Date:               May 21 2022, 13:17
% Dimension:          0
% Nodes:              12462
% Expressions:        12462
% Description:        , 
% TCTL (m^2) @ t=0, gamma=0.16, alpha=0.015
0.8999937057150617
% TCN (m^2) @ t=0, gamma=0.16, alpha=0.015
4.6384110324250097E-4
% TCTL (m^2) @ t=1, gamma=0.16, alpha=0.015
0.8879678758651316
% TCN (m^2) @ t=1, gamma=0.16, alpha=0.015
5.045727624848027E-4
% TCTL (m^2) @ t=2, gamma=0.16, alpha=0.015
0.8821000305309814
% TCN (m^2) @ t=2, gamma=0.16, alpha=0.015
5.486579950795621E-4
% TCTL (m^2) @ t=3, gamma=0.16, alpha=0.015
0.8811361337651085
% TCN (m^2) @ t=3, gamma=0.16, alpha=0.015
5.958946971817455E-4
% TCTL (m^2) @ t=4, gamma=0.16, alpha=0.015
0.8854985723277213
% TCN (m^2) @ t=4, gamma=0.16, alpha=0.015
6.472342330301246E-4
% TCTL (m^2) @ t=5, gamma=0.16, alpha=0.015
0.8950389197964248
% TCN (m^2) @ t=5, gamma=0.16, alpha=0.015
7.029993712313017E-4
% TCTL (m^2) @ t=6, gamma=0.16, alpha=0.015
0.9096274409322374
% TCN (m^2) @ t=6, gamma=0.16, alpha=0.015
7.635262959392324E-4
% TCTL (m^2) @ t=7, gamma=0.16, alpha=0.015
0.9291638673481729
% TCN (m^2) @ t=7, gamma=0.16, alpha=0.015
8.293194220993999E-4
% TCTL (m^2) @ t=8, gamma=0.16, alpha=0.015
0.953556073701016
% TCN (m^2) @ t=8, gamma=0.16, alpha=0.015
9.009987653597357E-4
% TCTL (m^2) @ t=9, gamma=0.16, alpha=0.015
0.9827708337372066
% TCN (m^2) @ t=9, gamma=0.16, alpha=0.015
9.78829008752738E-4
% TCTL (m^2) @ t=10, gamma=0.16, alpha=0.015
1.0167535819707805
% TCN (m^2) @ t=10, gamma=0.16, alpha=0.015
0.0010634409029453762
% TCTL (m^2) @ t=11, gamma=0.16, alpha=0.015
1.0555549913183238
% TCN (m^2) @ t=11, gamma=0.16, alpha=0.015
0.0011554260904377018
% TCTL (m^2) @ t=12, gamma=0.16, alpha=0.015
1.099172753965782
% TCN (m^2) @ t=12, gamma=0.16, alpha=0.015
0.001255339038555953
% TCTL (m^2) @ t=13, gamma=0.16, alpha=0.015
1.1476693935937539
% TCN (m^2) @ t=13, gamma=0.16, alpha=0.015
0.0013637651405147017
% TCTL (m^2) @ t=14, gamma=0.16, alpha=0.015
1.2010859703720045
% TCN (m^2) @ t=14, gamma=0.16, alpha=0.015
0.0014812851645084116
% TCTL (m^2) @ t=15, gamma=0.16, alpha=0.015
1.2594636713877745
% TCN (m^2) @ t=15, gamma=0.16, alpha=0.015
0.0016084685861483578
% TCTL (m^2) @ t=16, gamma=0.16, alpha=0.015
1.3230355169125645
% TCN (m^2) @ t=16, gamma=0.16, alpha=0.015
0.0017457978618807437
% TCTL (m^2) @ t=17, gamma=0.16, alpha=0.015
1.3918277301463418
% TCN (m^2) @ t=17, gamma=0.16, alpha=0.015
0.0018938562630242506
% TCTL (m^2) @ t=18, gamma=0.16, alpha=0.015
1.4660224415808831
% TCN (m^2) @ t=18, gamma=0.16, alpha=0.015
0.0020529462573567027
% TCTL (m^2) @ t=19, gamma=0.16, alpha=0.015
1.5458818014435214
% TCN (m^2) @ t=19, gamma=0.16, alpha=0.015
0.002223154958956078
% TCTL (m^2) @ t=20, gamma=0.16, alpha=0.015
1.6315019705594331
% TCN (m^2) @ t=20, gamma=0.16, alpha=0.015
0.00240501620209566
% TCTL (m^2) @ t=21, gamma=0.16, alpha=0.015
1.7232407960262672
% TCN (m^2) @ t=21, gamma=0.16, alpha=0.015
0.0025978489188899744
% TCTL (m^2) @ t=22, gamma=0.16, alpha=0.015
1.8213205501225422
% TCN (m^2) @ t=22, gamma=0.16, alpha=0.015
0.002801678979369321
% TCTL (m^2) @ t=23, gamma=0.16, alpha=0.015
1.9259846330304884
% TCN (m^2) @ t=23, gamma=0.16, alpha=0.015
0.003016458107584423
% TCTL (m^2) @ t=24, gamma=0.16, alpha=0.015
2.037880710103228
% TCN (m^2) @ t=24, gamma=0.16, alpha=0.015
0.003240334184481941
% TCTL (m^2) @ t=25, gamma=0.16, alpha=0.015
2.1573681357903913
% TCN (m^2) @ t=25, gamma=0.16, alpha=0.015
0.0034727262020325597
% TCTL (m^2) @ t=26, gamma=0.16, alpha=0.015
2.2848788695213766
% TCN (m^2) @ t=26, gamma=0.16, alpha=0.015
0.003712414418737659
% TCTL (m^2) @ t=27, gamma=0.16, alpha=0.015
2.420812677544877
% TCN (m^2) @ t=27, gamma=0.16, alpha=0.015
0.0039579894440808444
% TCTL (m^2) @ t=28, gamma=0.16, alpha=0.015
2.5657017755586473
% TCN (m^2) @ t=28, gamma=0.16, alpha=0.015
0.0042077847559038265
% TCTL (m^2) @ t=29, gamma=0.16, alpha=0.015
2.7198908538013935
% TCN (m^2) @ t=29, gamma=0.16, alpha=0.015
0.004459530657001911
% TCTL (m^2) @ t=30, gamma=0.16, alpha=0.015
2.8838281002682233
% TCN (m^2) @ t=30, gamma=0.16, alpha=0.015
0.004710916994431108
% TCTL (m^2) @ t=31, gamma=0.16, alpha=0.015
3.0580095648775902
% TCN (m^2) @ t=31, gamma=0.16, alpha=0.015
0.004959380340448813
% TCTL (m^2) @ t=32, gamma=0.16, alpha=0.015
3.2431658578483242
% TCN (m^2) @ t=32, gamma=0.16, alpha=0.015
0.005202106401806325
% TCTL (m^2) @ t=33, gamma=0.16, alpha=0.015
3.439836210292056
% TCN (m^2) @ t=33, gamma=0.16, alpha=0.015
0.005435966982862748
% TCTL (m^2) @ t=34, gamma=0.16, alpha=0.015
3.648788490184355
% TCN (m^2) @ t=34, gamma=0.16, alpha=0.015
0.005657177459584962
% TCTL (m^2) @ t=35, gamma=0.16, alpha=0.015
3.8707842344961865
% TCN (m^2) @ t=35, gamma=0.16, alpha=0.015
0.005862102059759437
% TCTL (m^2) @ t=36, gamma=0.16, alpha=0.015
4.106443522610222
% TCN (m^2) @ t=36, gamma=0.16, alpha=0.015
0.0060476050120152215
% TCTL (m^2) @ t=37, gamma=0.16, alpha=0.015
4.3567803861975705
% TCN (m^2) @ t=37, gamma=0.16, alpha=0.015
0.006210241716912052
% TCTL (m^2) @ t=38, gamma=0.16, alpha=0.015
4.622507182080664
% TCN (m^2) @ t=38, gamma=0.16, alpha=0.015
0.00634664252999325
% TCTL (m^2) @ t=39, gamma=0.16, alpha=0.015
4.904482550313747
% TCN (m^2) @ t=39, gamma=0.16, alpha=0.015
0.006453512868594822
% TCTL (m^2) @ t=40, gamma=0.16, alpha=0.015
5.2039153318073925
% TCN (m^2) @ t=40, gamma=0.16, alpha=0.015
0.006527849455336748
% TCTL (m^2) @ t=41, gamma=0.16, alpha=0.015
5.521574531280181
% TCN (m^2) @ t=41, gamma=0.16, alpha=0.015
0.006566258710828388
% TCTL (m^2) @ t=42, gamma=0.16, alpha=0.015
5.858685161075436
% TCN (m^2) @ t=42, gamma=0.16, alpha=0.015
0.0065678205232288945
% TCTL (m^2) @ t=43, gamma=0.16, alpha=0.015
6.216464666411535
% TCN (m^2) @ t=43, gamma=0.16, alpha=0.015
0.00653155830315272
% TCTL (m^2) @ t=44, gamma=0.16, alpha=0.015
6.595869923071383
% TCN (m^2) @ t=44, gamma=0.16, alpha=0.015
0.006454550690630964
% TCTL (m^2) @ t=45, gamma=0.16, alpha=0.015
6.998449734054212
% TCN (m^2) @ t=45, gamma=0.16, alpha=0.015
0.006339398353036885
% TCTL (m^2) @ t=46, gamma=0.16, alpha=0.015
7.425270533589205
% TCN (m^2) @ t=46, gamma=0.16, alpha=0.015
0.0061839968083096395
% TCTL (m^2) @ t=47, gamma=0.16, alpha=0.015
7.878522239185535
% TCN (m^2) @ t=47, gamma=0.16, alpha=0.015
0.005989814395802804
% TCTL (m^2) @ t=48, gamma=0.16, alpha=0.015
8.360814141233442
% TCN (m^2) @ t=48, gamma=0.16, alpha=0.015
0.005762586699872646
% TCTL (m^2) @ t=49, gamma=0.16, alpha=0.015
8.870494660035137
% TCN (m^2) @ t=49, gamma=0.16, alpha=0.015
0.0054992124658996295
% TCTL (m^2) @ t=50, gamma=0.16, alpha=0.015
9.410733270935786
% TCN (m^2) @ t=50, gamma=0.16, alpha=0.015
0.0052101971278214945
% TCTL (m^2) @ t=51, gamma=0.16, alpha=0.015
9.98225688200431
% TCN (m^2) @ t=51, gamma=0.16, alpha=0.015
0.004897950070115215
% TCTL (m^2) @ t=52, gamma=0.16, alpha=0.015
10.584088620826815
% TCN (m^2) @ t=52, gamma=0.16, alpha=0.015
0.0045593753954824325
% TCTL (m^2) @ t=53, gamma=0.16, alpha=0.015
11.221137241604518
% TCN (m^2) @ t=53, gamma=0.16, alpha=0.015
0.004218293083796097
% TCTL (m^2) @ t=54, gamma=0.16, alpha=0.015
11.891155146664659
% TCN (m^2) @ t=54, gamma=0.16, alpha=0.015
0.0038637965528291996
% TCTL (m^2) @ t=55, gamma=0.16, alpha=0.015
12.593939018195929
% TCN (m^2) @ t=55, gamma=0.16, alpha=0.015
0.003503421620801167
% TCTL (m^2) @ t=56, gamma=0.16, alpha=0.015
13.329108058256075
% TCN (m^2) @ t=56, gamma=0.16, alpha=0.015
0.0031512822704127435
% TCTL (m^2) @ t=57, gamma=0.16, alpha=0.015
14.096888514729805
% TCN (m^2) @ t=57, gamma=0.16, alpha=0.015
0.0027989927979178222
% TCTL (m^2) @ t=58, gamma=0.16, alpha=0.015
14.889922250824803
% TCN (m^2) @ t=58, gamma=0.16, alpha=0.015
0.0024569501038732436
% TCTL (m^2) @ t=59, gamma=0.16, alpha=0.015
15.703847943944051
% TCN (m^2) @ t=59, gamma=0.16, alpha=0.015
0.0021313166501380487
% TCTL (m^2) @ t=60, gamma=0.16, alpha=0.015
16.534961432474365
% TCN (m^2) @ t=60, gamma=0.16, alpha=0.015
0.0018240148584023784
% TCTL (m^2) @ t=61, gamma=0.16, alpha=0.015
17.333974291401034
% TCN (m^2) @ t=61, gamma=0.16, alpha=0.015
0.0015392662382444524
% TCTL (m^2) @ t=62, gamma=0.16, alpha=0.015
18.09992728039777
% TCN (m^2) @ t=62, gamma=0.16, alpha=0.015
0.0012812947298810142
% TCTL (m^2) @ t=63, gamma=0.16, alpha=0.015
18.77379519458186
% TCN (m^2) @ t=63, gamma=0.16, alpha=0.015
0.00105270890406182
% TCTL (m^2) @ t=64, gamma=0.16, alpha=0.015
19.293024756886684
% TCN (m^2) @ t=64, gamma=0.16, alpha=0.015
8.513334970352202E-4
% TCTL (m^2) @ t=65, gamma=0.16, alpha=0.015
19.59984503108642
% TCN (m^2) @ t=65, gamma=0.16, alpha=0.015
6.776947277772308E-4
% TCTL (m^2) @ t=66, gamma=0.16, alpha=0.015
19.5930823817898
% TCN (m^2) @ t=66, gamma=0.16, alpha=0.015
5.316940751781213E-4
% TCTL (m^2) @ t=67, gamma=0.16, alpha=0.015
19.256022711914152
% TCN (m^2) @ t=67, gamma=0.16, alpha=0.015
4.1179598422739377E-4
% TCTL (m^2) @ t=68, gamma=0.16, alpha=0.015
18.55530175767749
% TCN (m^2) @ t=68, gamma=0.16, alpha=0.015
3.172021899510701E-4
% TCTL (m^2) @ t=69, gamma=0.16, alpha=0.015
17.626171711061343
% TCN (m^2) @ t=69, gamma=0.16, alpha=0.015
2.403016870577487E-4
% TCTL (m^2) @ t=70, gamma=0.16, alpha=0.015
16.485619133950856
% TCN (m^2) @ t=70, gamma=0.16, alpha=0.015
1.798924810956255E-4
% TCTL (m^2) @ t=71, gamma=0.16, alpha=0.015
15.283566865415587
% TCN (m^2) @ t=71, gamma=0.16, alpha=0.015
1.3241441997947098E-4
% TCTL (m^2) @ t=72, gamma=0.16, alpha=0.015
14.02468233325915
% TCN (m^2) @ t=72, gamma=0.16, alpha=0.015
9.749771072272827E-5
% TCTL (m^2) @ t=73, gamma=0.16, alpha=0.015
12.817737017384758
% TCN (m^2) @ t=73, gamma=0.16, alpha=0.015
7.078409696925487E-5
% TCTL (m^2) @ t=74, gamma=0.16, alpha=0.015
11.666980162324883
% TCN (m^2) @ t=74, gamma=0.16, alpha=0.015
5.109927557093656E-5
% TCTL (m^2) @ t=75, gamma=0.16, alpha=0.015
10.59162813304873
% TCN (m^2) @ t=75, gamma=0.16, alpha=0.015
3.702885321621662E-5
% TCTL (m^2) @ t=76, gamma=0.16, alpha=0.015
9.59924172875027
% TCN (m^2) @ t=76, gamma=0.16, alpha=0.015
2.7160247184247308E-5
% TCTL (m^2) @ t=77, gamma=0.16, alpha=0.015
8.689697786892046
% TCN (m^2) @ t=77, gamma=0.16, alpha=0.015
2.028618316021768E-5
% TCTL (m^2) @ t=78, gamma=0.16, alpha=0.015
7.863417989664287
% TCN (m^2) @ t=78, gamma=0.16, alpha=0.015
1.566805108927902E-5
% TCTL (m^2) @ t=79, gamma=0.16, alpha=0.015
7.1141850677697
% TCN (m^2) @ t=79, gamma=0.16, alpha=0.015
1.2432005478547304E-5
% TCTL (m^2) @ t=80, gamma=0.16, alpha=0.015
6.436602446069166
% TCN (m^2) @ t=80, gamma=0.16, alpha=0.015
1.0195072337265585E-5
% TCTL (m^2) @ t=81, gamma=0.16, alpha=0.015
5.824039074079558
% TCN (m^2) @ t=81, gamma=0.16, alpha=0.015
8.52463244949085E-6
% TCTL (m^2) @ t=82, gamma=0.16, alpha=0.015
5.270090893895845
% TCN (m^2) @ t=82, gamma=0.16, alpha=0.015
7.279561703577138E-6
% TCTL (m^2) @ t=83, gamma=0.16, alpha=0.015
4.769165650468113
% TCN (m^2) @ t=83, gamma=0.16, alpha=0.015
6.3148667182397875E-6
% TCTL (m^2) @ t=84, gamma=0.16, alpha=0.015
4.315856211607121
% TCN (m^2) @ t=84, gamma=0.16, alpha=0.015
5.573947566130875E-6
% TCTL (m^2) @ t=85, gamma=0.16, alpha=0.015
3.905723792013432
% TCN (m^2) @ t=85, gamma=0.16, alpha=0.015
5.0390533324960025E-6
% TCTL (m^2) @ t=86, gamma=0.16, alpha=0.015
3.5345675601030795
% TCN (m^2) @ t=86, gamma=0.16, alpha=0.015
4.665119871416824E-6
% TCTL (m^2) @ t=87, gamma=0.16, alpha=0.015
3.1978438780896656
% TCN (m^2) @ t=87, gamma=0.16, alpha=0.015
4.417246287596769E-6
% TCTL (m^2) @ t=88, gamma=0.16, alpha=0.015
2.892261814644978
% TCN (m^2) @ t=88, gamma=0.16, alpha=0.015
4.264413945700539E-6
% TCTL (m^2) @ t=89, gamma=0.16, alpha=0.015
2.6153928081901676
% TCN (m^2) @ t=89, gamma=0.16, alpha=0.015
4.197680162030444E-6
% TCTL (m^2) @ t=90, gamma=0.16, alpha=0.015
2.365597271397801
% TCN (m^2) @ t=90, gamma=0.16, alpha=0.015
4.2112773967343034E-6
% TCTL (m^2) @ t=91, gamma=0.16, alpha=0.015
2.139611181993286
% TCN (m^2) @ t=91, gamma=0.16, alpha=0.015
4.296105808141953E-6
% TCTL (m^2) @ t=92, gamma=0.16, alpha=0.015
1.9349392221211965
% TCN (m^2) @ t=92, gamma=0.16, alpha=0.015
4.452232435898722E-6
% TCTL (m^2) @ t=93, gamma=0.16, alpha=0.015
1.7506360260885776
% TCN (m^2) @ t=93, gamma=0.16, alpha=0.015
4.682319899390471E-6
% TCTL (m^2) @ t=94, gamma=0.16, alpha=0.015
1.5840639572186326
% TCN (m^2) @ t=94, gamma=0.16, alpha=0.015
4.999176809548279E-6
% TCTL (m^2) @ t=95, gamma=0.16, alpha=0.015
1.4338416002311374
% TCN (m^2) @ t=95, gamma=0.16, alpha=0.015
5.408654217492344E-6
% TCTL (m^2) @ t=96, gamma=0.16, alpha=0.015
1.298306837337573
% TCN (m^2) @ t=96, gamma=0.16, alpha=0.015
5.921787642638891E-6
% TCTL (m^2) @ t=97, gamma=0.16, alpha=0.015
1.1759386193132202
% TCN (m^2) @ t=97, gamma=0.16, alpha=0.015
6.5551669633095245E-6
% TCTL (m^2) @ t=98, gamma=0.16, alpha=0.015
1.064989368235425
% TCN (m^2) @ t=98, gamma=0.16, alpha=0.015
7.316462836868524E-6
% TCTL (m^2) @ t=99, gamma=0.16, alpha=0.015
0.9644195864095071
% TCN (m^2) @ t=99, gamma=0.16, alpha=0.015
8.231629390366108E-6
% TCTL (m^2) @ t=100, gamma=0.16, alpha=0.015
0.8738996611971455
% TCN (m^2) @ t=100, gamma=0.16, alpha=0.015
9.34374124201503E-6
% TCTL (m^2) @ t=101, gamma=0.16, alpha=0.015
0.7916515363159189
% TCN (m^2) @ t=101, gamma=0.16, alpha=0.015
1.0660940500340425E-5
% TCTL (m^2) @ t=102, gamma=0.16, alpha=0.015
0.7169919043978616
% TCN (m^2) @ t=102, gamma=0.16, alpha=0.015
1.2231760185304674E-5
% TCTL (m^2) @ t=103, gamma=0.16, alpha=0.015
0.6497749331237348
% TCN (m^2) @ t=103, gamma=0.16, alpha=0.015
1.4131069751441928E-5
% TCTL (m^2) @ t=104, gamma=0.16, alpha=0.015
0.5886722840424998
% TCN (m^2) @ t=104, gamma=0.16, alpha=0.015
1.637579550700537E-5
% TCTL (m^2) @ t=105, gamma=0.16, alpha=0.015
0.5332158549606215
% TCN (m^2) @ t=105, gamma=0.16, alpha=0.015
1.90507385498251E-5
% TCTL (m^2) @ t=106, gamma=0.16, alpha=0.015
0.4832724726107431
% TCN (m^2) @ t=106, gamma=0.16, alpha=0.015
2.2277646681449577E-5
% TCTL (m^2) @ t=107, gamma=0.16, alpha=0.015
0.43790302733449593
% TCN (m^2) @ t=107, gamma=0.16, alpha=0.015
2.608936319047942E-5
% TCTL (m^2) @ t=108, gamma=0.16, alpha=0.015
0.3966898764086593
% TCN (m^2) @ t=108, gamma=0.16, alpha=0.015
3.0611886400767634E-5
% TCTL (m^2) @ t=109, gamma=0.16, alpha=0.015
0.35946415558779404
% TCN (m^2) @ t=109, gamma=0.16, alpha=0.015
3.603955890980513E-5
% TCTL (m^2) @ t=110, gamma=0.16, alpha=0.015
0.32574857512190075
% TCN (m^2) @ t=110, gamma=0.16, alpha=0.015
4.248199284615987E-5
% TCTL (m^2) @ t=111, gamma=0.16, alpha=0.015
0.2952454225808353
% TCN (m^2) @ t=111, gamma=0.16, alpha=0.015
5.0139154360996874E-5
% TCTL (m^2) @ t=112, gamma=0.16, alpha=0.015
0.2677061222757139
% TCN (m^2) @ t=112, gamma=0.16, alpha=0.015
5.926550191124452E-5
% TCTL (m^2) @ t=113, gamma=0.16, alpha=0.015
0.2429397183185204
% TCN (m^2) @ t=113, gamma=0.16, alpha=0.015
7.007828853459326E-5
% TCTL (m^2) @ t=114, gamma=0.16, alpha=0.015
0.22072856715629846
% TCN (m^2) @ t=114, gamma=0.16, alpha=0.015
8.290359844401966E-5
% TCTL (m^2) @ t=115, gamma=0.16, alpha=0.015
0.2008409749957047
% TCN (m^2) @ t=115, gamma=0.16, alpha=0.015
9.814535612283294E-5
% TCTL (m^2) @ t=116, gamma=0.16, alpha=0.015
0.18318701660808032
% TCN (m^2) @ t=116, gamma=0.16, alpha=0.015
1.1615774911239559E-4
% TCTL (m^2) @ t=117, gamma=0.16, alpha=0.015
0.16762772689667996
% TCN (m^2) @ t=117, gamma=0.16, alpha=0.015
1.3746334013755993E-4
% TCTL (m^2) @ t=118, gamma=0.16, alpha=0.015
0.1540265763400203
% TCN (m^2) @ t=118, gamma=0.16, alpha=0.015
1.626944989696196E-4
% TCTL (m^2) @ t=119, gamma=0.16, alpha=0.015
0.14232926596390535
% TCN (m^2) @ t=119, gamma=0.16, alpha=0.015
1.9241700085034503E-4
% TCTL (m^2) @ t=120, gamma=0.16, alpha=0.015
0.1324517145659063
% TCN (m^2) @ t=120, gamma=0.16, alpha=0.015
2.2744839846990596E-4
% TCTL (m^2) @ t=121, gamma=0.16, alpha=0.015
0.12431453974082707
% TCN (m^2) @ t=121, gamma=0.16, alpha=0.015
2.68754643035292E-4
% TCTL (m^2) @ t=122, gamma=0.16, alpha=0.015
0.11789678392898409
% TCN (m^2) @ t=122, gamma=0.16, alpha=0.015
3.172201156086352E-4
% TCTL (m^2) @ t=123, gamma=0.16, alpha=0.015
0.11312057744513046
% TCN (m^2) @ t=123, gamma=0.16, alpha=0.015
3.7409465913586373E-4
% TCTL (m^2) @ t=124, gamma=0.16, alpha=0.015
0.10989631421593471
% TCN (m^2) @ t=124, gamma=0.16, alpha=0.015
4.408232665850045E-4
% TCTL (m^2) @ t=125, gamma=0.16, alpha=0.015
0.1082052850317207
% TCN (m^2) @ t=125, gamma=0.16, alpha=0.015
5.187560006670582E-4
% TCTL (m^2) @ t=126, gamma=0.16, alpha=0.015
0.10794326647963413
% TCN (m^2) @ t=126, gamma=0.16, alpha=0.015
6.096789080548947E-4
% TCTL (m^2) @ t=127, gamma=0.16, alpha=0.015
0.1089621828624587
% TCN (m^2) @ t=127, gamma=0.16, alpha=0.015
7.156722255429057E-4
% TCTL (m^2) @ t=128, gamma=0.16, alpha=0.015
0.11115113359518408
% TCN (m^2) @ t=128, gamma=0.16, alpha=0.015
8.388476366166948E-4
% TCTL (m^2) @ t=129, gamma=0.16, alpha=0.015
0.11440895431207607
% TCN (m^2) @ t=129, gamma=0.16, alpha=0.015
9.817756420851785E-4
% TCTL (m^2) @ t=130, gamma=0.16, alpha=0.015
0.11864075181526487
% TCN (m^2) @ t=130, gamma=0.16, alpha=0.015
0.0011473781975379106
% TCTL (m^2) @ t=131, gamma=0.16, alpha=0.015
0.12368780672157687
% TCN (m^2) @ t=131, gamma=0.16, alpha=0.015
0.0013388102750557216
% TCTL (m^2) @ t=132, gamma=0.16, alpha=0.015
0.12952107905261498
% TCN (m^2) @ t=132, gamma=0.16, alpha=0.015
0.0015597662961217358
% TCTL (m^2) @ t=133, gamma=0.16, alpha=0.015
0.13612811803221916
% TCN (m^2) @ t=133, gamma=0.16, alpha=0.015
0.0018142347222793909
% TCTL (m^2) @ t=134, gamma=0.16, alpha=0.015
0.14341428075045515
% TCN (m^2) @ t=134, gamma=0.16, alpha=0.015
0.0021064351763485523
% TCTL (m^2) @ t=135, gamma=0.16, alpha=0.015
0.1513731458837579
% TCN (m^2) @ t=135, gamma=0.16, alpha=0.015
0.002441480142327802
% TCTL (m^2) @ t=136, gamma=0.16, alpha=0.015
0.16001336291925353
% TCN (m^2) @ t=136, gamma=0.16, alpha=0.015
0.0028248844177672303
% TCTL (m^2) @ t=137, gamma=0.16, alpha=0.015
0.1693330535327963
% TCN (m^2) @ t=137, gamma=0.16, alpha=0.015
0.003262235931848238
% TCTL (m^2) @ t=138, gamma=0.16, alpha=0.015
0.17934554331598299
% TCN (m^2) @ t=138, gamma=0.16, alpha=0.015
0.0037602474490031497
% TCTL (m^2) @ t=139, gamma=0.16, alpha=0.015
0.19007984023627084
% TCN (m^2) @ t=139, gamma=0.16, alpha=0.015
0.004326077364509398
% TCTL (m^2) @ t=140, gamma=0.16, alpha=0.015
0.20158709087116045
% TCN (m^2) @ t=140, gamma=0.16, alpha=0.015
0.004967051996350801
% TCTL (m^2) @ t=141, gamma=0.16, alpha=0.015
0.21388158818298808
% TCN (m^2) @ t=141, gamma=0.16, alpha=0.015
0.005691695772992875
% TCTL (m^2) @ t=142, gamma=0.16, alpha=0.015
0.2269932176982994
% TCN (m^2) @ t=142, gamma=0.16, alpha=0.015
0.006509023050547254
% TCTL (m^2) @ t=143, gamma=0.16, alpha=0.015
0.24098441502185625
% TCN (m^2) @ t=143, gamma=0.16, alpha=0.015
0.007428345659969911
% TCTL (m^2) @ t=144, gamma=0.16, alpha=0.015
0.25587733844446214
% TCN (m^2) @ t=144, gamma=0.16, alpha=0.015
0.008459992419722237
% TCTL (m^2) @ t=145, gamma=0.16, alpha=0.015
0.2717048577053589
% TCN (m^2) @ t=145, gamma=0.16, alpha=0.015
0.009614848036427967
% TCTL (m^2) @ t=146, gamma=0.16, alpha=0.015
0.288518334404071
% TCN (m^2) @ t=146, gamma=0.16, alpha=0.015
0.010904288312176772
% TCTL (m^2) @ t=147, gamma=0.16, alpha=0.015
0.3063653389212012
% TCN (m^2) @ t=147, gamma=0.16, alpha=0.015
0.012340217811477545
% TCTL (m^2) @ t=148, gamma=0.16, alpha=0.015
0.3252951895927826
% TCN (m^2) @ t=148, gamma=0.16, alpha=0.015
0.013935196305140724
% TCTL (m^2) @ t=149, gamma=0.16, alpha=0.015
0.3453587459747244
% TCN (m^2) @ t=149, gamma=0.16, alpha=0.015
0.01570245382455511
% TCTL (m^2) @ t=150, gamma=0.16, alpha=0.015
0.36665497070559566
% TCN (m^2) @ t=150, gamma=0.16, alpha=0.015
0.01765398571054753
% TCTL (m^2) @ t=151, gamma=0.16, alpha=0.015
0.3892748196837944
% TCN (m^2) @ t=151, gamma=0.16, alpha=0.015
0.019802809000271853
% TCTL (m^2) @ t=152, gamma=0.16, alpha=0.015
0.41330272780072885
% TCN (m^2) @ t=152, gamma=0.16, alpha=0.015
0.02216290310234423
% TCTL (m^2) @ t=153, gamma=0.16, alpha=0.015
0.43884025705563856
% TCN (m^2) @ t=153, gamma=0.16, alpha=0.015
0.024748265534968478
% TCTL (m^2) @ t=154, gamma=0.16, alpha=0.015
0.46599743745140687
% TCN (m^2) @ t=154, gamma=0.16, alpha=0.015
0.027573257681275325
% TCTL (m^2) @ t=155, gamma=0.16, alpha=0.015
0.49489276699455637
% TCN (m^2) @ t=155, gamma=0.16, alpha=0.015
0.030652604789321906
% TCTL (m^2) @ t=156, gamma=0.16, alpha=0.015
0.5255266926070161
% TCN (m^2) @ t=156, gamma=0.16, alpha=0.015
0.03399065248453854
% TCTL (m^2) @ t=157, gamma=0.16, alpha=0.015
0.5580207649329081
% TCN (m^2) @ t=157, gamma=0.16, alpha=0.015
0.03760167482542149
% TCTL (m^2) @ t=158, gamma=0.16, alpha=0.015
0.5925063514858061
% TCN (m^2) @ t=158, gamma=0.16, alpha=0.015
0.04150042427560435
% TCTL (m^2) @ t=159, gamma=0.16, alpha=0.015
0.6290940092632901
% TCN (m^2) @ t=159, gamma=0.16, alpha=0.015
0.04569953095057336
% TCTL (m^2) @ t=160, gamma=0.16, alpha=0.015
0.6678981119382407
% TCN (m^2) @ t=160, gamma=0.16, alpha=0.015
0.05021159385881446
% TCTL (m^2) @ t=161, gamma=0.16, alpha=0.015
0.7090368498588305
% TCN (m^2) @ t=161, gamma=0.16, alpha=0.015
0.05504918090181161
% TCTL (m^2) @ t=162, gamma=0.16, alpha=0.015
0.7527873140594185
% TCN (m^2) @ t=162, gamma=0.16, alpha=0.015
0.06018168012678381
% TCTL (m^2) @ t=163, gamma=0.16, alpha=0.015
0.7992623718984835
% TCN (m^2) @ t=163, gamma=0.16, alpha=0.015
0.06562520204062086
% TCTL (m^2) @ t=164, gamma=0.16, alpha=0.015
0.8485987182154462
% TCN (m^2) @ t=164, gamma=0.16, alpha=0.015
0.07139025847250766
% TCTL (m^2) @ t=165, gamma=0.16, alpha=0.015
0.9009648280388771
% TCN (m^2) @ t=165, gamma=0.16, alpha=0.015
0.07747954990613187
% TCTL (m^2) @ t=166, gamma=0.16, alpha=0.015
0.9565363221711385
% TCN (m^2) @ t=166, gamma=0.16, alpha=0.015
0.08389481946905245
% TCTL (m^2) @ t=167, gamma=0.16, alpha=0.015
1.015495967188378
% TCN (m^2) @ t=167, gamma=0.16, alpha=0.015
0.09063685293270117
% TCTL (m^2) @ t=168, gamma=0.16, alpha=0.015
1.078151091390422
% TCN (m^2) @ t=168, gamma=0.16, alpha=0.015
0.0976336865110451
% TCTL (m^2) @ t=169, gamma=0.16, alpha=0.015
1.14467689616692
% TCN (m^2) @ t=169, gamma=0.16, alpha=0.015
0.10489755523174867
% TCTL (m^2) @ t=170, gamma=0.16, alpha=0.015
1.2152841403853794
% TCN (m^2) @ t=170, gamma=0.16, alpha=0.015
0.11242236486089915
% TCTL (m^2) @ t=171, gamma=0.16, alpha=0.015
1.2902067906238148
% TCN (m^2) @ t=171, gamma=0.16, alpha=0.015
0.12019124298091514
% TCTL (m^2) @ t=172, gamma=0.16, alpha=0.015
1.369687960214183
% TCN (m^2) @ t=172, gamma=0.16, alpha=0.015
0.12818513634913706
% TCTL (m^2) @ t=173, gamma=0.16, alpha=0.015
1.4539799092423529
% TCN (m^2) @ t=173, gamma=0.16, alpha=0.015
0.13638281089782403
% TCTL (m^2) @ t=174, gamma=0.16, alpha=0.015
1.5435858775787128
% TCN (m^2) @ t=174, gamma=0.16, alpha=0.015
0.14463639006836695
% TCTL (m^2) @ t=175, gamma=0.16, alpha=0.015
1.6387148552387658
% TCN (m^2) @ t=175, gamma=0.16, alpha=0.015
0.1529519624230534
% TCTL (m^2) @ t=176, gamma=0.16, alpha=0.015
1.73966695257846
% TCN (m^2) @ t=176, gamma=0.16, alpha=0.015
0.16129124721432075
% TCTL (m^2) @ t=177, gamma=0.16, alpha=0.015
1.8467752517850133
% TCN (m^2) @ t=177, gamma=0.16, alpha=0.015
0.16960152106721044
% TCTL (m^2) @ t=178, gamma=0.16, alpha=0.015
1.9603858819299838
% TCN (m^2) @ t=178, gamma=0.16, alpha=0.015
0.17782587254253926
% TCTL (m^2) @ t=179, gamma=0.16, alpha=0.015
2.0808580189692254
% TCN (m^2) @ t=179, gamma=0.16, alpha=0.015
0.18590320213691197
% TCTL (m^2) @ t=180, gamma=0.16, alpha=0.015
2.2089461943722393
% TCN (m^2) @ t=180, gamma=0.16, alpha=0.015
0.19381314530992053
% TCTL (m^2) @ t=181, gamma=0.16, alpha=0.015
2.344747129918585
% TCN (m^2) @ t=181, gamma=0.16, alpha=0.015
0.2015029537505787
% TCTL (m^2) @ t=182, gamma=0.16, alpha=0.015
2.4885909046214896
% TCN (m^2) @ t=182, gamma=0.16, alpha=0.015
0.2089244238174126
% TCTL (m^2) @ t=183, gamma=0.16, alpha=0.015
2.64124127560155
% TCN (m^2) @ t=183, gamma=0.16, alpha=0.015
0.2159312288036349
% TCTL (m^2) @ t=184, gamma=0.16, alpha=0.015
2.8035993400980384
% TCN (m^2) @ t=184, gamma=0.16, alpha=0.015
0.22234381709198658
% TCTL (m^2) @ t=185, gamma=0.16, alpha=0.015
2.975837665630511
% TCN (m^2) @ t=185, gamma=0.16, alpha=0.015
0.2281588807946569
% TCTL (m^2) @ t=186, gamma=0.16, alpha=0.015
3.1584435940928213
% TCN (m^2) @ t=186, gamma=0.16, alpha=0.015
0.2332969627492551
% TCTL (m^2) @ t=187, gamma=0.16, alpha=0.015
3.352642255239841
% TCN (m^2) @ t=187, gamma=0.16, alpha=0.015
0.23765328752250825
% TCTL (m^2) @ t=188, gamma=0.16, alpha=0.015
3.558745580750167
% TCN (m^2) @ t=188, gamma=0.16, alpha=0.015
0.24115441741043647
% TCTL (m^2) @ t=189, gamma=0.16, alpha=0.015
3.77736400216064
% TCN (m^2) @ t=189, gamma=0.16, alpha=0.015
0.24371667124929458
% TCTL (m^2) @ t=190, gamma=0.16, alpha=0.015
4.009470629109553
% TCN (m^2) @ t=190, gamma=0.16, alpha=0.015
0.24530401664817503
% TCTL (m^2) @ t=191, gamma=0.16, alpha=0.015
4.256084074439837
% TCN (m^2) @ t=191, gamma=0.16, alpha=0.015
0.24588644717453645
% TCTL (m^2) @ t=192, gamma=0.16, alpha=0.015
4.517742446697735
% TCN (m^2) @ t=192, gamma=0.16, alpha=0.015
0.24537032353947694
% TCTL (m^2) @ t=193, gamma=0.16, alpha=0.015
4.795347554988354
% TCN (m^2) @ t=193, gamma=0.16, alpha=0.015
0.24368750561385055
% TCTL (m^2) @ t=194, gamma=0.16, alpha=0.015
5.092560205435882
% TCN (m^2) @ t=194, gamma=0.16, alpha=0.015
0.24076119732278622
% TCTL (m^2) @ t=195, gamma=0.16, alpha=0.015
5.4070890629774855
% TCN (m^2) @ t=195, gamma=0.16, alpha=0.015
0.23665342854055488
% TCTL (m^2) @ t=196, gamma=0.16, alpha=0.015
5.7403497953256934
% TCN (m^2) @ t=196, gamma=0.16, alpha=0.015
0.23138808474892783
% TCTL (m^2) @ t=197, gamma=0.16, alpha=0.015
6.096020196793067
% TCN (m^2) @ t=197, gamma=0.16, alpha=0.015
0.22502721856676666
% TCTL (m^2) @ t=198, gamma=0.16, alpha=0.015
6.471991063553732
% TCN (m^2) @ t=198, gamma=0.16, alpha=0.015
0.21753524300633229
% TCTL (m^2) @ t=199, gamma=0.16, alpha=0.015
6.872299858148452
% TCN (m^2) @ t=199, gamma=0.16, alpha=0.015
0.20909061991697747
% TCTL (m^2) @ t=200, gamma=0.16, alpha=0.015
7.296315837749242
% TCN (m^2) @ t=200, gamma=0.16, alpha=0.015
0.19966546952758427
% TCTL (m^2) @ t=0, gamma=0.16, alpha=0.0175
0.899993705994175
% TCN (m^2) @ t=0, gamma=0.16, alpha=0.0175
4.6384710339567243E-4
% TCTL (m^2) @ t=1, gamma=0.16, alpha=0.0175
0.8893396087070109
% TCN (m^2) @ t=1, gamma=0.16, alpha=0.0175
5.21383613979425E-4
% TCTL (m^2) @ t=2, gamma=0.16, alpha=0.0175
0.8870811473116507
% TCN (m^2) @ t=2, gamma=0.16, alpha=0.0175
5.855106404632475E-4
% TCTL (m^2) @ t=3, gamma=0.16, alpha=0.0175
0.8913783507025724
% TCN (m^2) @ t=3, gamma=0.16, alpha=0.0175
6.556631627078859E-4
% TCTL (m^2) @ t=4, gamma=0.16, alpha=0.0175
0.9025926607344599
% TCN (m^2) @ t=4, gamma=0.16, alpha=0.0175
7.335182408985859E-4
% TCTL (m^2) @ t=5, gamma=0.16, alpha=0.0175
0.9204000334149597
% TCN (m^2) @ t=5, gamma=0.16, alpha=0.0175
8.196415645454517E-4
% TCTL (m^2) @ t=6, gamma=0.16, alpha=0.0175
0.9445071768854785
% TCN (m^2) @ t=6, gamma=0.16, alpha=0.0175
9.146477119369955E-4
% TCTL (m^2) @ t=7, gamma=0.16, alpha=0.0175
0.9746269488576904
% TCN (m^2) @ t=7, gamma=0.16, alpha=0.0175
0.001019489788495317
% TCTL (m^2) @ t=8, gamma=0.16, alpha=0.0175
1.0104825011591645
% TCN (m^2) @ t=8, gamma=0.16, alpha=0.0175
0.001135414745536375
% TCTL (m^2) @ t=9, gamma=0.16, alpha=0.0175
1.0520067698962392
% TCN (m^2) @ t=9, gamma=0.16, alpha=0.0175
0.0012631137218856578
% TCTL (m^2) @ t=10, gamma=0.16, alpha=0.0175
1.0990109911095027
% TCN (m^2) @ t=10, gamma=0.16, alpha=0.0175
0.0014039951441299778
% TCTL (m^2) @ t=11, gamma=0.16, alpha=0.0175
1.1513786778562465
% TCN (m^2) @ t=11, gamma=0.16, alpha=0.0175
0.0015590339998885392
% TCTL (m^2) @ t=12, gamma=0.16, alpha=0.0175
1.2091677246171058
% TCN (m^2) @ t=12, gamma=0.16, alpha=0.0175
0.00172962087582037
% TCTL (m^2) @ t=13, gamma=0.16, alpha=0.0175
1.2722472828119806
% TCN (m^2) @ t=13, gamma=0.16, alpha=0.0175
0.0019168511722492867
% TCTL (m^2) @ t=14, gamma=0.16, alpha=0.0175
1.3406896357035252
% TCN (m^2) @ t=14, gamma=0.16, alpha=0.0175
0.002122105693320076
% TCTL (m^2) @ t=15, gamma=0.16, alpha=0.0175
1.414724455978563
% TCN (m^2) @ t=15, gamma=0.16, alpha=0.0175
0.0023469769605709064
% TCTL (m^2) @ t=16, gamma=0.16, alpha=0.0175
1.494285280285011
% TCN (m^2) @ t=16, gamma=0.16, alpha=0.0175
0.0025926591387216823
% TCTL (m^2) @ t=17, gamma=0.16, alpha=0.0175
1.5797161978228225
% TCN (m^2) @ t=17, gamma=0.16, alpha=0.0175
0.0028601805569466367
% TCTL (m^2) @ t=18, gamma=0.16, alpha=0.0175
1.671176369898982
% TCN (m^2) @ t=18, gamma=0.16, alpha=0.0175
0.0031507538732020073
% TCTL (m^2) @ t=19, gamma=0.16, alpha=0.0175
1.7687981615729738
% TCN (m^2) @ t=19, gamma=0.16, alpha=0.0175
0.00346543558638732
% TCTL (m^2) @ t=20, gamma=0.16, alpha=0.0175
1.873040944159735
% TCN (m^2) @ t=20, gamma=0.16, alpha=0.0175
0.003803345839182821
% TCTL (m^2) @ t=21, gamma=0.16, alpha=0.0175
1.9840408615769878
% TCN (m^2) @ t=21, gamma=0.16, alpha=0.0175
0.0041657890988787884
% TCTL (m^2) @ t=22, gamma=0.16, alpha=0.0175
2.1022595390744736
% TCN (m^2) @ t=22, gamma=0.16, alpha=0.0175
0.004552002507532601
% TCTL (m^2) @ t=23, gamma=0.16, alpha=0.0175
2.2284362732933065
% TCN (m^2) @ t=23, gamma=0.16, alpha=0.0175
0.004959509031638668
% TCTL (m^2) @ t=24, gamma=0.16, alpha=0.0175
2.3630463617283377
% TCN (m^2) @ t=24, gamma=0.16, alpha=0.0175
0.005387461409065901
% TCTL (m^2) @ t=25, gamma=0.16, alpha=0.0175
2.506356829011803
% TCN (m^2) @ t=25, gamma=0.16, alpha=0.0175
0.0058336959310750875
% TCTL (m^2) @ t=26, gamma=0.16, alpha=0.0175
2.658849343497253
% TCN (m^2) @ t=26, gamma=0.16, alpha=0.0175
0.006295667088959926
% TCTL (m^2) @ t=27, gamma=0.16, alpha=0.0175
2.8210578078044595
% TCN (m^2) @ t=27, gamma=0.16, alpha=0.0175
0.006770295655998536
% TCTL (m^2) @ t=28, gamma=0.16, alpha=0.0175