% Model:              MODEL_SC_3_0.15_II.mph
% Version:            COMSOL 5.6.0.401
% Date:               May 21 2022, 13:11
% Dimension:          0
% Nodes:              12462
% Expressions:        12462
% Description:        , 
% TCTL (m^2) @ t=0, gamma=0.1375, alpha=0.015
0.8999895281509876
% TCN (m^2) @ t=0, gamma=0.1375, alpha=0.015
4.6384110334068886E-4
% TCTL (m^2) @ t=1, gamma=0.1375, alpha=0.015
0.8774012107350498
% TCN (m^2) @ t=1, gamma=0.1375, alpha=0.015
5.051726306431007E-4
% TCTL (m^2) @ t=2, gamma=0.1375, alpha=0.015
0.8606400302617647
% TCN (m^2) @ t=2, gamma=0.1375, alpha=0.015
5.509233089044242E-4
% TCTL (m^2) @ t=3, gamma=0.1375, alpha=0.015
0.8482906774120005
% TCN (m^2) @ t=3, gamma=0.1375, alpha=0.015
6.007498127233289E-4
% TCTL (m^2) @ t=4, gamma=0.1375, alpha=0.015
0.8404574661317796
% TCN (m^2) @ t=4, gamma=0.1375, alpha=0.015
6.556265959694347E-4
% TCTL (m^2) @ t=5, gamma=0.1375, alpha=0.015
0.8370877780775292
% TCN (m^2) @ t=5, gamma=0.1375, alpha=0.015
7.163327584203212E-4
% TCTL (m^2) @ t=6, gamma=0.1375, alpha=0.015
0.8377594330818641
% TCN (m^2) @ t=6, gamma=0.1375, alpha=0.015
7.834621073830401E-4
% TCTL (m^2) @ t=7, gamma=0.1375, alpha=0.015
0.8423682113987765
% TCN (m^2) @ t=7, gamma=0.1375, alpha=0.015
8.573801534556972E-4
% TCTL (m^2) @ t=8, gamma=0.1375, alpha=0.015
0.850637702209261
% TCN (m^2) @ t=8, gamma=0.1375, alpha=0.015
9.388039001181486E-4
% TCTL (m^2) @ t=9, gamma=0.1375, alpha=0.015
0.862213047291182
% TCN (m^2) @ t=9, gamma=0.1375, alpha=0.015
0.0010288660235412371
% TCTL (m^2) @ t=10, gamma=0.1375, alpha=0.015
0.8770627609281831
% TCN (m^2) @ t=10, gamma=0.1375, alpha=0.015
0.001127677322435986
% TCTL (m^2) @ t=11, gamma=0.1375, alpha=0.015
0.8948304401979016
% TCN (m^2) @ t=11, gamma=0.1375, alpha=0.015
0.0012363790658758006
% TCTL (m^2) @ t=12, gamma=0.1375, alpha=0.015
0.9154154995155704
% TCN (m^2) @ t=12, gamma=0.1375, alpha=0.015
0.0013558818556333881
% TCTL (m^2) @ t=13, gamma=0.1375, alpha=0.015
0.9386528377113013
% TCN (m^2) @ t=13, gamma=0.1375, alpha=0.015
0.001487163309537766
% TCTL (m^2) @ t=14, gamma=0.1375, alpha=0.015
0.9643699458662129
% TCN (m^2) @ t=14, gamma=0.1375, alpha=0.015
0.0016311554949885914
% TCTL (m^2) @ t=15, gamma=0.1375, alpha=0.015
0.9924792469691706
% TCN (m^2) @ t=15, gamma=0.1375, alpha=0.015
0.0017889848923058208
% TCTL (m^2) @ t=16, gamma=0.1375, alpha=0.015
1.0228404340100004
% TCN (m^2) @ t=16, gamma=0.1375, alpha=0.015
0.00196166625823601
% TCTL (m^2) @ t=17, gamma=0.1375, alpha=0.015
1.0553011647352142
% TCN (m^2) @ t=17, gamma=0.1375, alpha=0.015
0.0021501888494230097
% TCTL (m^2) @ t=18, gamma=0.1375, alpha=0.015
1.0898902345303163
% TCN (m^2) @ t=18, gamma=0.1375, alpha=0.015
0.002355803871556599
% TCTL (m^2) @ t=19, gamma=0.1375, alpha=0.015
1.1265478000168716
% TCN (m^2) @ t=19, gamma=0.1375, alpha=0.015
0.0025796387170722336
% TCTL (m^2) @ t=20, gamma=0.1375, alpha=0.015
1.1651454345884356
% TCN (m^2) @ t=20, gamma=0.1375, alpha=0.015
0.002822724979318538
% TCTL (m^2) @ t=21, gamma=0.1375, alpha=0.015
1.2057408212787302
% TCN (m^2) @ t=21, gamma=0.1375, alpha=0.015
0.003086087281178212
% TCTL (m^2) @ t=22, gamma=0.1375, alpha=0.015
1.2483596944715
% TCN (m^2) @ t=22, gamma=0.1375, alpha=0.015
0.003370765094471143
% TCTL (m^2) @ t=23, gamma=0.1375, alpha=0.015
1.2929175673403055
% TCN (m^2) @ t=23, gamma=0.1375, alpha=0.015
0.0036778491190918427
% TCTL (m^2) @ t=24, gamma=0.1375, alpha=0.015
1.3394658924609195
% TCN (m^2) @ t=24, gamma=0.1375, alpha=0.015
0.004007916695691318
% TCTL (m^2) @ t=25, gamma=0.1375, alpha=0.015
1.3880705330817666
% TCN (m^2) @ t=25, gamma=0.1375, alpha=0.015
0.004361460149449775
% TCTL (m^2) @ t=26, gamma=0.1375, alpha=0.015
1.4386945346956475
% TCN (m^2) @ t=26, gamma=0.1375, alpha=0.015
0.00473957837680945
% TCTL (m^2) @ t=27, gamma=0.1375, alpha=0.015
1.491430352657843
% TCN (m^2) @ t=27, gamma=0.1375, alpha=0.015
0.005142468469687546
% TCTL (m^2) @ t=28, gamma=0.1375, alpha=0.015
1.546474161573042
% TCN (m^2) @ t=28, gamma=0.1375, alpha=0.015
0.005569549011240847
% TCTL (m^2) @ t=29, gamma=0.1375, alpha=0.015
1.6038871882444232
% TCN (m^2) @ t=29, gamma=0.1375, alpha=0.015
0.0060212514925123434
% TCTL (m^2) @ t=30, gamma=0.1375, alpha=0.015
1.6637583525291273
% TCN (m^2) @ t=30, gamma=0.1375, alpha=0.015
0.0064973735650912644
% TCTL (m^2) @ t=31, gamma=0.1375, alpha=0.015
1.7260951208421
% TCN (m^2) @ t=31, gamma=0.1375, alpha=0.015
0.006997435359633014
% TCTL (m^2) @ t=32, gamma=0.1375, alpha=0.015
1.7910398081369823
% TCN (m^2) @ t=32, gamma=0.1375, alpha=0.015
0.0075209525748047065
% TCTL (m^2) @ t=33, gamma=0.1375, alpha=0.015
1.8586579019533405
% TCN (m^2) @ t=33, gamma=0.1375, alpha=0.015
0.008066999766226044
% TCTL (m^2) @ t=34, gamma=0.1375, alpha=0.015
1.9288892372135318
% TCN (m^2) @ t=34, gamma=0.1375, alpha=0.015
0.008633724962090476
% TCTL (m^2) @ t=35, gamma=0.1375, alpha=0.015
2.001815198498369
% TCN (m^2) @ t=35, gamma=0.1375, alpha=0.015
0.009219896456866019
% TCTL (m^2) @ t=36, gamma=0.1375, alpha=0.015
2.0774915346839915
% TCN (m^2) @ t=36, gamma=0.1375, alpha=0.015
0.00982357663350876
% TCTL (m^2) @ t=37, gamma=0.1375, alpha=0.015
2.156177234247458
% TCN (m^2) @ t=37, gamma=0.1375, alpha=0.015
0.010441604428605703
% TCTL (m^2) @ t=38, gamma=0.1375, alpha=0.015
2.237913293047054
% TCN (m^2) @ t=38, gamma=0.1375, alpha=0.015
0.011071506535978628
% TCTL (m^2) @ t=39, gamma=0.1375, alpha=0.015
2.322825495349341
% TCN (m^2) @ t=39, gamma=0.1375, alpha=0.015
0.011709970888376685
% TCTL (m^2) @ t=40, gamma=0.1375, alpha=0.015
2.4110252207439995
% TCN (m^2) @ t=40, gamma=0.1375, alpha=0.015
0.012352159442673039
% TCTL (m^2) @ t=41, gamma=0.1375, alpha=0.015
2.502625517251095
% TCN (m^2) @ t=41, gamma=0.1375, alpha=0.015
0.012995666729904464
% TCTL (m^2) @ t=42, gamma=0.1375, alpha=0.015
2.597741182059431
% TCN (m^2) @ t=42, gamma=0.1375, alpha=0.015
0.013637187493776914
% TCTL (m^2) @ t=43, gamma=0.1375, alpha=0.015
2.696533127641845
% TCN (m^2) @ t=43, gamma=0.1375, alpha=0.015
0.014269948954069498
% TCTL (m^2) @ t=44, gamma=0.1375, alpha=0.015
2.799107744802623
% TCN (m^2) @ t=44, gamma=0.1375, alpha=0.015
0.014891277951633846
% TCTL (m^2) @ t=45, gamma=0.1375, alpha=0.015
2.9055887928323036
% TCN (m^2) @ t=45, gamma=0.1375, alpha=0.015
0.015497195347255799
% TCTL (m^2) @ t=46, gamma=0.1375, alpha=0.015
3.01623989627803
% TCN (m^2) @ t=46, gamma=0.1375, alpha=0.015
0.016078506542420268
% TCTL (m^2) @ t=47, gamma=0.1375, alpha=0.015
3.1311765316581273
% TCN (m^2) @ t=47, gamma=0.1375, alpha=0.015
0.016631541255612475
% TCTL (m^2) @ t=48, gamma=0.1375, alpha=0.015
3.250547805744978
% TCN (m^2) @ t=48, gamma=0.1375, alpha=0.015
0.017151375161064405
% TCTL (m^2) @ t=49, gamma=0.1375, alpha=0.015
3.3745087082551724
% TCN (m^2) @ t=49, gamma=0.1375, alpha=0.015
0.017632864562902528
% TCTL (m^2) @ t=50, gamma=0.1375, alpha=0.015
3.5032142289052977
% TCN (m^2) @ t=50, gamma=0.1375, alpha=0.015
0.01807086576525374
% TCTL (m^2) @ t=51, gamma=0.1375, alpha=0.015
3.6368193574119143
% TCN (m^2) @ t=51, gamma=0.1375, alpha=0.015
0.01846023507224468
% TCTL (m^2) @ t=52, gamma=0.1375, alpha=0.015
3.7756519843108425
% TCN (m^2) @ t=52, gamma=0.1375, alpha=0.015
0.018803854657033228
% TCTL (m^2) @ t=53, gamma=0.1375, alpha=0.015
3.9198496768511664
% TCN (m^2) @ t=53, gamma=0.1375, alpha=0.015
0.019095772091647704
% TCTL (m^2) @ t=54, gamma=0.1375, alpha=0.015
4.069546349902446
% TCN (m^2) @ t=54, gamma=0.1375, alpha=0.015
0.019329865408609516
% TCTL (m^2) @ t=55, gamma=0.1375, alpha=0.015
4.224916443271514
% TCN (m^2) @ t=55, gamma=0.1375, alpha=0.015
0.019501893764198825
% TCTL (m^2) @ t=56, gamma=0.1375, alpha=0.015
4.386134396765208
% TCN (m^2) @ t=56, gamma=0.1375, alpha=0.015
0.019607616314695923
% TCTL (m^2) @ t=57, gamma=0.1375, alpha=0.015
4.553374650190346
% TCN (m^2) @ t=57, gamma=0.1375, alpha=0.015
0.019642792216380878
% TCTL (m^2) @ t=58, gamma=0.1375, alpha=0.015
4.72716827376692
% TCN (m^2) @ t=58, gamma=0.1375, alpha=0.015
0.01961973990720162
% TCTL (m^2) @ t=59, gamma=0.1375, alpha=0.015
4.907802335801324
% TCN (m^2) @ t=59, gamma=0.1375, alpha=0.015
0.01953944817888028
% TCTL (m^2) @ t=60, gamma=0.1375, alpha=0.015
5.095301218412048
% TCN (m^2) @ t=60, gamma=0.1375, alpha=0.015
0.019390708617249106
% TCTL (m^2) @ t=61, gamma=0.1375, alpha=0.015
5.289880459791722
% TCN (m^2) @ t=61, gamma=0.1375, alpha=0.015
0.01917118868399799
% TCTL (m^2) @ t=62, gamma=0.1375, alpha=0.015
5.491755598133007
% TCN (m^2) @ t=62, gamma=0.1375, alpha=0.015
0.018878555840816873
% TCTL (m^2) @ t=63, gamma=0.1375, alpha=0.015
5.701142171628536
% TCN (m^2) @ t=63, gamma=0.1375, alpha=0.015
0.018510477549395728
% TCTL (m^2) @ t=64, gamma=0.1375, alpha=0.015
5.918569610077731
% TCN (m^2) @ t=64, gamma=0.1375, alpha=0.015
0.01808695891137112
% TCTL (m^2) @ t=65, gamma=0.1375, alpha=0.015
6.1446240626884805
% TCN (m^2) @ t=65, gamma=0.1375, alpha=0.015
0.017632041382641225
% TCTL (m^2) @ t=66, gamma=0.1375, alpha=0.015
6.379238612398856
% TCN (m^2) @ t=66, gamma=0.1375, alpha=0.015
0.017123291907259443
% TCTL (m^2) @ t=67, gamma=0.1375, alpha=0.015
6.622681735571018
% TCN (m^2) @ t=67, gamma=0.1375, alpha=0.015
0.01656214521480543
% TCTL (m^2) @ t=68, gamma=0.1375, alpha=0.015
6.875221908567216
% TCN (m^2) @ t=68, gamma=0.1375, alpha=0.015
0.015950036034859012
% TCTL (m^2) @ t=69, gamma=0.1375, alpha=0.015
7.137127607749612
% TCN (m^2) @ t=69, gamma=0.1375, alpha=0.015
0.015288399096999803
% TCTL (m^2) @ t=70, gamma=0.1375, alpha=0.015
7.408847264225822
% TCN (m^2) @ t=70, gamma=0.1375, alpha=0.015
0.014586972445920667
% TCTL (m^2) @ t=71, gamma=0.1375, alpha=0.015
7.691230268156479
% TCN (m^2) @ t=71, gamma=0.1375, alpha=0.015
0.01387399482968672
% TCTL (m^2) @ t=72, gamma=0.1375, alpha=0.015
7.984179805317085
% TCN (m^2) @ t=72, gamma=0.1375, alpha=0.015
0.013134046057811473
% TCTL (m^2) @ t=73, gamma=0.1375, alpha=0.015
8.28801764607135
% TCN (m^2) @ t=73, gamma=0.1375, alpha=0.015
0.012371019905269537
% TCTL (m^2) @ t=74, gamma=0.1375, alpha=0.015
8.603065560782921
% TCN (m^2) @ t=74, gamma=0.1375, alpha=0.015
0.011588810147035649
% TCTL (m^2) @ t=75, gamma=0.1375, alpha=0.015
8.92964531981553
% TCN (m^2) @ t=75, gamma=0.1375, alpha=0.015
0.010791310558084483
% TCTL (m^2) @ t=76, gamma=0.1375, alpha=0.015
9.268199240739953
% TCN (m^2) @ t=76, gamma=0.1375, alpha=0.015
0.00998567945967132
% TCTL (m^2) @ t=77, gamma=0.1375, alpha=0.015
9.62019241402298
% TCN (m^2) @ t=77, gamma=0.1375, alpha=0.015
0.00921305405527742
% TCTL (m^2) @ t=78, gamma=0.1375, alpha=0.015
9.98417438783492
% TCN (m^2) @ t=78, gamma=0.1375, alpha=0.015
0.008438042003013697
% TCTL (m^2) @ t=79, gamma=0.1375, alpha=0.015
10.360226581912967
% TCN (m^2) @ t=79, gamma=0.1375, alpha=0.015
0.007662445339044125
% TCTL (m^2) @ t=80, gamma=0.1375, alpha=0.015
10.750377489860817
% TCN (m^2) @ t=80, gamma=0.1375, alpha=0.015
0.006931160042634544
% TCTL (m^2) @ t=81, gamma=0.1375, alpha=0.015
11.153578841944935
% TCN (m^2) @ t=81, gamma=0.1375, alpha=0.015
0.006220985105837181
% TCTL (m^2) @ t=82, gamma=0.1375, alpha=0.015
11.569787956391357
% TCN (m^2) @ t=82, gamma=0.1375, alpha=0.015
0.005532527519699472
% TCTL (m^2) @ t=83, gamma=0.1375, alpha=0.015
11.996414090903171
% TCN (m^2) @ t=83, gamma=0.1375, alpha=0.015
0.00490263105227568
% TCTL (m^2) @ t=84, gamma=0.1375, alpha=0.015
12.434775990529577
% TCN (m^2) @ t=84, gamma=0.1375, alpha=0.015
0.004312541411881633
% TCTL (m^2) @ t=85, gamma=0.1375, alpha=0.015
12.88487365527061
% TCN (m^2) @ t=85, gamma=0.1375, alpha=0.015
0.0037622585985173634
% TCTL (m^2) @ t=86, gamma=0.1375, alpha=0.015
13.334917547538868
% TCN (m^2) @ t=86, gamma=0.1375, alpha=0.015
0.0032576643302434215
% TCTL (m^2) @ t=87, gamma=0.1375, alpha=0.015
13.790726189923916
% TCN (m^2) @ t=87, gamma=0.1375, alpha=0.015
0.002795855786728878
% TCTL (m^2) @ t=88, gamma=0.1375, alpha=0.015
14.252364237751754
% TCN (m^2) @ t=88, gamma=0.1375, alpha=0.015
0.002376800711882633
% TCTL (m^2) @ t=89, gamma=0.1375, alpha=0.015
14.671095441957668
% TCN (m^2) @ t=89, gamma=0.1375, alpha=0.015
0.0020085229607106824
% TCTL (m^2) @ t=90, gamma=0.1375, alpha=0.015
15.068982078650155
% TCN (m^2) @ t=90, gamma=0.1375, alpha=0.015
0.0016873902367602993
% TCTL (m^2) @ t=91, gamma=0.1375, alpha=0.015
15.44737980866325
% TCN (m^2) @ t=91, gamma=0.1375, alpha=0.015
0.0014131793462860067
% TCTL (m^2) @ t=92, gamma=0.1375, alpha=0.015
15.70584212683483
% TCN (m^2) @ t=92, gamma=0.1375, alpha=0.015
0.0011634934324475082
% TCTL (m^2) @ t=93, gamma=0.1375, alpha=0.015
15.88549240772971
% TCN (m^2) @ t=93, gamma=0.1375, alpha=0.015
9.475018967230334E-4
% TCTL (m^2) @ t=94, gamma=0.1375, alpha=0.015
15.964648783854056
% TCN (m^2) @ t=94, gamma=0.1375, alpha=0.015
7.652508440514456E-4
% TCTL (m^2) @ t=95, gamma=0.1375, alpha=0.015
15.816477686775258
% TCN (m^2) @ t=95, gamma=0.1375, alpha=0.015
6.115190080927645E-4
% TCTL (m^2) @ t=96, gamma=0.1375, alpha=0.015
15.507567679167526
% TCN (m^2) @ t=96, gamma=0.1375, alpha=0.015
4.890475923407907E-4
% TCTL (m^2) @ t=97, gamma=0.1375, alpha=0.015
14.993102282865511
% TCN (m^2) @ t=97, gamma=0.1375, alpha=0.015
3.856701707714652E-4
% TCTL (m^2) @ t=98, gamma=0.1375, alpha=0.015
14.285577176333486
% TCN (m^2) @ t=98, gamma=0.1375, alpha=0.015
3.047789721783009E-4
% TCTL (m^2) @ t=99, gamma=0.1375, alpha=0.015
13.489088571451699
% TCN (m^2) @ t=99, gamma=0.1375, alpha=0.015
2.3845514203198285E-4
% TCTL (m^2) @ t=100, gamma=0.1375, alpha=0.015
12.590158308480877
% TCN (m^2) @ t=100, gamma=0.1375, alpha=0.015
1.8783023646298526E-4
% TCTL (m^2) @ t=101, gamma=0.1375, alpha=0.015
11.659561815550706
% TCN (m^2) @ t=101, gamma=0.1375, alpha=0.015
1.4684769844576406E-4
% TCTL (m^2) @ t=102, gamma=0.1375, alpha=0.015
10.695412260603097
% TCN (m^2) @ t=102, gamma=0.1375, alpha=0.015
1.1566863899781517E-4
% TCTL (m^2) @ t=103, gamma=0.1375, alpha=0.015
9.778631902874936
% TCN (m^2) @ t=103, gamma=0.1375, alpha=0.015
9.014169146712647E-5
% TCTL (m^2) @ t=104, gamma=0.1375, alpha=0.015
8.89608054612289
% TCN (m^2) @ t=104, gamma=0.1375, alpha=0.015
7.078105583345812E-5
% TCTL (m^2) @ t=105, gamma=0.1375, alpha=0.015
8.083384617803407
% TCN (m^2) @ t=105, gamma=0.1375, alpha=0.015
5.494616768143639E-5
% TCTL (m^2) @ t=106, gamma=0.1375, alpha=0.015
7.329349544661419
% TCN (m^2) @ t=106, gamma=0.1375, alpha=0.015
4.259033452304408E-5
% TCTL (m^2) @ t=107, gamma=0.1375, alpha=0.015
6.634468675909216
% TCN (m^2) @ t=107, gamma=0.1375, alpha=0.015
3.31684752867719E-5
% TCTL (m^2) @ t=108, gamma=0.1375, alpha=0.015
5.999761110397728
% TCN (m^2) @ t=108, gamma=0.1375, alpha=0.015
2.567960299819468E-5
% TCTL (m^2) @ t=109, gamma=0.1375, alpha=0.015
5.424231145331412
% TCN (m^2) @ t=109, gamma=0.1375, alpha=0.015
2.0465786848349255E-5
% TCTL (m^2) @ t=110, gamma=0.1375, alpha=0.015
4.904885989170807
% TCN (m^2) @ t=110, gamma=0.1375, alpha=0.015
1.763992397697355E-5
% TCTL (m^2) @ t=111, gamma=0.1375, alpha=0.015
4.43588032867832
% TCN (m^2) @ t=111, gamma=0.1375, alpha=0.015
1.6080348481058234E-5
% TCTL (m^2) @ t=112, gamma=0.1375, alpha=0.015
4.012259629621887
% TCN (m^2) @ t=112, gamma=0.1375, alpha=0.015
1.4987999634614557E-5
% TCTL (m^2) @ t=113, gamma=0.1375, alpha=0.015
3.6287231378624902
% TCN (m^2) @ t=113, gamma=0.1375, alpha=0.015
1.4098954971711216E-5
% TCTL (m^2) @ t=114, gamma=0.1375, alpha=0.015
3.281489382499296
% TCN (m^2) @ t=114, gamma=0.1375, alpha=0.015
1.3386922480451114E-5
% TCTL (m^2) @ t=115, gamma=0.1375, alpha=0.015
2.9673329132386805
% TCN (m^2) @ t=115, gamma=0.1375, alpha=0.015
1.286770714251181E-5
% TCTL (m^2) @ t=116, gamma=0.1375, alpha=0.015
2.6841328926527455
% TCN (m^2) @ t=116, gamma=0.1375, alpha=0.015
1.254858712428277E-5
% TCTL (m^2) @ t=117, gamma=0.1375, alpha=0.015
2.4285926938114386
% TCN (m^2) @ t=117, gamma=0.1375, alpha=0.015
1.2448518406878169E-5
% TCTL (m^2) @ t=118, gamma=0.1375, alpha=0.015
2.1978646580791033
% TCN (m^2) @ t=118, gamma=0.1375, alpha=0.015
1.2555459329705725E-5
% TCTL (m^2) @ t=119, gamma=0.1375, alpha=0.015
1.9890572883757422
% TCN (m^2) @ t=119, gamma=0.1375, alpha=0.015
1.2869846948567941E-5
% TCTL (m^2) @ t=120, gamma=0.1375, alpha=0.015
1.800418392618951
% TCN (m^2) @ t=120, gamma=0.1375, alpha=0.015
1.3388323854228675E-5
% TCTL (m^2) @ t=121, gamma=0.1375, alpha=0.015
1.6298015536284893
% TCN (m^2) @ t=121, gamma=0.1375, alpha=0.015
1.4108062878318171E-5
% TCTL (m^2) @ t=122, gamma=0.1375, alpha=0.015
1.475294610645726
% TCN (m^2) @ t=122, gamma=0.1375, alpha=0.015
1.5040301939279675E-5
% TCTL (m^2) @ t=123, gamma=0.1375, alpha=0.015
1.3354252747321653
% TCN (m^2) @ t=123, gamma=0.1375, alpha=0.015
1.6201122474984513E-5
% TCTL (m^2) @ t=124, gamma=0.1375, alpha=0.015
1.2084930976218058
% TCN (m^2) @ t=124, gamma=0.1375, alpha=0.015
1.760765128453653E-5
% TCTL (m^2) @ t=125, gamma=0.1375, alpha=0.015
1.0937575250672376
% TCN (m^2) @ t=125, gamma=0.1375, alpha=0.015
1.9308487373474307E-5
% TCTL (m^2) @ t=126, gamma=0.1375, alpha=0.015
0.9896745417380512
% TCN (m^2) @ t=126, gamma=0.1375, alpha=0.015
2.1327327590091617E-5
% TCTL (m^2) @ t=127, gamma=0.1375, alpha=0.015
0.8957029498253155
% TCN (m^2) @ t=127, gamma=0.1375, alpha=0.015
2.3744708063735724E-5
% TCTL (m^2) @ t=128, gamma=0.1375, alpha=0.015
0.8105822950878799
% TCN (m^2) @ t=128, gamma=0.1375, alpha=0.015
2.6595645161601245E-5
% TCTL (m^2) @ t=129, gamma=0.1375, alpha=0.015
0.7337854113144012
% TCN (m^2) @ t=129, gamma=0.1375, alpha=0.015
2.9994561210881225E-5
% TCTL (m^2) @ t=130, gamma=0.1375, alpha=0.015
0.6643082039598383
% TCN (m^2) @ t=130, gamma=0.1375, alpha=0.015
3.399591883456477E-5
% TCTL (m^2) @ t=131, gamma=0.1375, alpha=0.015
0.6015741820941181
% TCN (m^2) @ t=131, gamma=0.1375, alpha=0.015
3.8753948705936015E-5
% TCTL (m^2) @ t=132, gamma=0.1375, alpha=0.015
0.544948837181392
% TCN (m^2) @ t=132, gamma=0.1375, alpha=0.015
4.440667006448256E-5
% TCTL (m^2) @ t=133, gamma=0.1375, alpha=0.015
0.49383886796218657
% TCN (m^2) @ t=133, gamma=0.1375, alpha=0.015
5.112086986424288E-5
% TCTL (m^2) @ t=134, gamma=0.1375, alpha=0.015
0.44773004514915304
% TCN (m^2) @ t=134, gamma=0.1375, alpha=0.015
5.909225970602165E-5
% TCTL (m^2) @ t=135, gamma=0.1375, alpha=0.015
0.406178426519456
% TCN (m^2) @ t=135, gamma=0.1375, alpha=0.015
6.853344739794876E-5
% TCTL (m^2) @ t=136, gamma=0.1375, alpha=0.015
0.36880019615204934
% TCN (m^2) @ t=136, gamma=0.1375, alpha=0.015
7.968239161029935E-5
% TCTL (m^2) @ t=137, gamma=0.1375, alpha=0.015
0.3352477684860401
% TCN (m^2) @ t=137, gamma=0.1375, alpha=0.015
9.285593812168391E-5
% TCTL (m^2) @ t=138, gamma=0.1375, alpha=0.015
0.3051903430506073
% TCN (m^2) @ t=138, gamma=0.1375, alpha=0.015
1.084905283743302E-4
% TCTL (m^2) @ t=139, gamma=0.1375, alpha=0.015
0.27842626730352965
% TCN (m^2) @ t=139, gamma=0.1375, alpha=0.015
1.2690696855130256E-4
% TCTL (m^2) @ t=140, gamma=0.1375, alpha=0.015
0.2547834310085521
% TCN (m^2) @ t=140, gamma=0.1375, alpha=0.015
1.4851895334497581E-4
% TCTL (m^2) @ t=141, gamma=0.1375, alpha=0.015
0.23403994690993105
% TCN (m^2) @ t=141, gamma=0.1375, alpha=0.015
1.7397619546732253E-4
% TCTL (m^2) @ t=142, gamma=0.1375, alpha=0.015
0.2159470252438825
% TCN (m^2) @ t=142, gamma=0.1375, alpha=0.015
2.0412144906587916E-4
% TCTL (m^2) @ t=143, gamma=0.1375, alpha=0.015
0.2004931400090819
% TCN (m^2) @ t=143, gamma=0.1375, alpha=0.015
2.3949419469004347E-4
% TCTL (m^2) @ t=144, gamma=0.1375, alpha=0.015
0.18763076277451354
% TCN (m^2) @ t=144, gamma=0.1375, alpha=0.015
2.808440512384485E-4
% TCTL (m^2) @ t=145, gamma=0.1375, alpha=0.015
0.17713947504134392
% TCN (m^2) @ t=145, gamma=0.1375, alpha=0.015
3.2934625534589916E-4
% TCTL (m^2) @ t=146, gamma=0.1375, alpha=0.015
0.16879674599484484
% TCN (m^2) @ t=146, gamma=0.1375, alpha=0.015
3.8631373273490693E-4
% TCTL (m^2) @ t=147, gamma=0.1375, alpha=0.015
0.16265856295545444
% TCN (m^2) @ t=147, gamma=0.1375, alpha=0.015
4.5272395961550255E-4
% TCTL (m^2) @ t=148, gamma=0.1375, alpha=0.015
0.15868875003133265
% TCN (m^2) @ t=148, gamma=0.1375, alpha=0.015
5.298439257039812E-4
% TCTL (m^2) @ t=149, gamma=0.1375, alpha=0.015
0.15655757074547602
% TCN (m^2) @ t=149, gamma=0.1375, alpha=0.015
6.197043187554792E-4
% TCTL (m^2) @ t=150, gamma=0.1375, alpha=0.015
0.1560142809206027
% TCN (m^2) @ t=150, gamma=0.1375, alpha=0.015
7.243130476743383E-4
% TCTL (m^2) @ t=151, gamma=0.1375, alpha=0.015
0.1570324377061664
% TCN (m^2) @ t=151, gamma=0.1375, alpha=0.015
8.453484882351039E-4
% TCTL (m^2) @ t=152, gamma=0.1375, alpha=0.015
0.15946464982973801
% TCN (m^2) @ t=152, gamma=0.1375, alpha=0.015
9.848883217506643E-4
% TCTL (m^2) @ t=153, gamma=0.1375, alpha=0.015
0.16306140849095738
% TCN (m^2) @ t=153, gamma=0.1375, alpha=0.015
0.0011462219195572194
% TCTL (m^2) @ t=154, gamma=0.1375, alpha=0.015
0.16761864544182137
% TCN (m^2) @ t=154, gamma=0.1375, alpha=0.015
0.0013322788658171017
% TCTL (m^2) @ t=155, gamma=0.1375, alpha=0.015
0.17295914673899426
% TCN (m^2) @ t=155, gamma=0.1375, alpha=0.015
0.0015458268989962192
% TCTL (m^2) @ t=156, gamma=0.1375, alpha=0.015
0.17887118645956646
% TCN (m^2) @ t=156, gamma=0.1375, alpha=0.015
0.0017901254559883634
% TCTL (m^2) @ t=157, gamma=0.1375, alpha=0.015
0.18541583114181265
% TCN (m^2) @ t=157, gamma=0.1375, alpha=0.015
0.002070085947276753
% TCTL (m^2) @ t=158, gamma=0.1375, alpha=0.015
0.1924429840684775
% TCN (m^2) @ t=158, gamma=0.1375, alpha=0.015
0.0023898159909906567
% TCTL (m^2) @ t=159, gamma=0.1375, alpha=0.015
0.1997873951633436
% TCN (m^2) @ t=159, gamma=0.1375, alpha=0.015
0.002753614037851273
% TCTL (m^2) @ t=160, gamma=0.1375, alpha=0.015
0.2073360932113015
% TCN (m^2) @ t=160, gamma=0.1375, alpha=0.015
0.0031663115465895694
% TCTL (m^2) @ t=161, gamma=0.1375, alpha=0.015
0.2154576114764136
% TCN (m^2) @ t=161, gamma=0.1375, alpha=0.015
0.003637932154663432
% TCTL (m^2) @ t=162, gamma=0.1375, alpha=0.015
0.22395649493359754
% TCN (m^2) @ t=162, gamma=0.1375, alpha=0.015
0.0041719002909786935
% TCTL (m^2) @ t=163, gamma=0.1375, alpha=0.015
0.23274516259048614
% TCN (m^2) @ t=163, gamma=0.1375, alpha=0.015
0.004773025801478329
% TCTL (m^2) @ t=164, gamma=0.1375, alpha=0.015
0.24177904763566282
% TCN (m^2) @ t=164, gamma=0.1375, alpha=0.015
0.005446593297493118
% TCTL (m^2) @ t=165, gamma=0.1375, alpha=0.015
0.251339752087017
% TCN (m^2) @ t=165, gamma=0.1375, alpha=0.015
0.006210014736783136
% TCTL (m^2) @ t=166, gamma=0.1375, alpha=0.015
0.2612907715404532
% TCN (m^2) @ t=166, gamma=0.1375, alpha=0.015
0.00706515638123518
% TCTL (m^2) @ t=167, gamma=0.1375, alpha=0.015
0.27162818990678794
% TCN (m^2) @ t=167, gamma=0.1375, alpha=0.015
0.008018814284558352
% TCTL (m^2) @ t=168, gamma=0.1375, alpha=0.015
0.2823512882601451
% TCN (m^2) @ t=168, gamma=0.1375, alpha=0.015
0.009078650074752196
% TCTL (m^2) @ t=169, gamma=0.1375, alpha=0.015
0.2934011266711601
% TCN (m^2) @ t=169, gamma=0.1375, alpha=0.015
0.0102654742023504
% TCTL (m^2) @ t=170, gamma=0.1375, alpha=0.015
0.30479945670412745
% TCN (m^2) @ t=170, gamma=0.1375, alpha=0.015
0.01158187348609361
% TCTL (m^2) @ t=171, gamma=0.1375, alpha=0.015
0.31653949936840853
% TCN (m^2) @ t=171, gamma=0.1375, alpha=0.015
0.013036878178898845
% TCTL (m^2) @ t=172, gamma=0.1375, alpha=0.015
0.3286346487802688
% TCN (m^2) @ t=172, gamma=0.1375, alpha=0.015
0.01464143156939299
% TCTL (m^2) @ t=173, gamma=0.1375, alpha=0.015
0.34123747129009185
% TCN (m^2) @ t=173, gamma=0.1375, alpha=0.015
0.016419674787017467
% TCTL (m^2) @ t=174, gamma=0.1375, alpha=0.015
0.3542897477450754
% TCN (m^2) @ t=174, gamma=0.1375, alpha=0.015
0.018375759963158617
% TCTL (m^2) @ t=175, gamma=0.1375, alpha=0.015
0.367810005784557
% TCN (m^2) @ t=175, gamma=0.1375, alpha=0.015
0.02052111720352094
% TCTL (m^2) @ t=176, gamma=0.1375, alpha=0.015
0.38182241996412025
% TCN (m^2) @ t=176, gamma=0.1375, alpha=0.015
0.022869700448390505
% TCTL (m^2) @ t=177, gamma=0.1375, alpha=0.015
0.396370074224703
% TCN (m^2) @ t=177, gamma=0.1375, alpha=0.015
0.025443915004891085
% TCTL (m^2) @ t=178, gamma=0.1375, alpha=0.015
0.4114635548035206
% TCN (m^2) @ t=178, gamma=0.1375, alpha=0.015
0.028251641645879982
% TCTL (m^2) @ t=179, gamma=0.1375, alpha=0.015
0.4271257139622623
% TCN (m^2) @ t=179, gamma=0.1375, alpha=0.015
0.031306243325181636
% TCTL (m^2) @ t=180, gamma=0.1375, alpha=0.015
0.44337961194165787
% TCN (m^2) @ t=180, gamma=0.1375, alpha=0.015
0.03462341302518564
% TCTL (m^2) @ t=181, gamma=0.1375, alpha=0.015
0.46024866506137974
% TCN (m^2) @ t=181, gamma=0.1375, alpha=0.015
0.038222832948139135
% TCTL (m^2) @ t=182, gamma=0.1375, alpha=0.015
0.4777555434288609
% TCN (m^2) @ t=182, gamma=0.1375, alpha=0.015
0.04211582533923173
% TCTL (m^2) @ t=183, gamma=0.1375, alpha=0.015
0.4959232120009218
% TCN (m^2) @ t=183, gamma=0.1375, alpha=0.015
0.04631701569713301
% TCTL (m^2) @ t=184, gamma=0.1375, alpha=0.015
0.5147816748421383
% TCN (m^2) @ t=184, gamma=0.1375, alpha=0.015
0.050839158570521306
% TCTL (m^2) @ t=185, gamma=0.1375, alpha=0.015
0.5343663499969766
% TCN (m^2) @ t=185, gamma=0.1375, alpha=0.015
0.055693569506716716
% TCTL (m^2) @ t=186, gamma=0.1375, alpha=0.015
0.5546962064695938
% TCN (m^2) @ t=186, gamma=0.1375, alpha=0.015
0.060895936103145545
% TCTL (m^2) @ t=187, gamma=0.1375, alpha=0.015
0.5757971215203882
% TCN (m^2) @ t=187, gamma=0.1375, alpha=0.015
0.06646010978674158
% TCTL (m^2) @ t=188, gamma=0.1375, alpha=0.015
0.5976949724097639
% TCN (m^2) @ t=188, gamma=0.1375, alpha=0.015
0.07239994198443703
% TCTL (m^2) @ t=189, gamma=0.1375, alpha=0.015
0.620415636398127
% TCN (m^2) @ t=189, gamma=0.1375, alpha=0.015
0.07872928412316546
% TCTL (m^2) @ t=190, gamma=0.1375, alpha=0.015
0.6439849907458755
% TCN (m^2) @ t=190, gamma=0.1375, alpha=0.015
0.08546198762986013
% TCTL (m^2) @ t=191, gamma=0.1375, alpha=0.015
0.6684289127134161
% TCN (m^2) @ t=191, gamma=0.1375, alpha=0.015
0.09261190393145333
% TCTL (m^2) @ t=192, gamma=0.1375, alpha=0.015
0.693817306424777
% TCN (m^2) @ t=192, gamma=0.1375, alpha=0.015
0.10013260555363512
% TCTL (m^2) @ t=193, gamma=0.1375, alpha=0.015
0.7201889253332746
% TCN (m^2) @ t=193, gamma=0.1375, alpha=0.015
0.108020314623933
% TCTL (m^2) @ t=194, gamma=0.1375, alpha=0.015
0.7475483179306669
% TCN (m^2) @ t=194, gamma=0.1375, alpha=0.015
0.1163180846207715
% TCTL (m^2) @ t=195, gamma=0.1375, alpha=0.015
0.77592575166544
% TCN (m^2) @ t=195, gamma=0.1375, alpha=0.015
0.12503375619284088
% TCTL (m^2) @ t=196, gamma=0.1375, alpha=0.015
0.805351493986083
% TCN (m^2) @ t=196, gamma=0.1375, alpha=0.015
0.13417516998883205
% TCTL (m^2) @ t=197, gamma=0.1375, alpha=0.015
0.8358558123410829
% TCN (m^2) @ t=197, gamma=0.1375, alpha=0.015
0.1437501666574359
% TCTL (m^2) @ t=198, gamma=0.1375, alpha=0.015
0.8674689741789251
% TCN (m^2) @ t=198, gamma=0.1375, alpha=0.015
0.1537665868473431
% TCTL (m^2) @ t=199, gamma=0.1375, alpha=0.015
0.9002212469480979
% TCN (m^2) @ t=199, gamma=0.1375, alpha=0.015
0.1642322712072446
% TCTL (m^2) @ t=200, gamma=0.1375, alpha=0.015
0.9342827901154165
% TCN (m^2) @ t=200, gamma=0.1375, alpha=0.015
0.1749223011479772
% TCTL (m^2) @ t=0, gamma=0.1375, alpha=0.0175
0.8999895283908456
% TCN (m^2) @ t=0, gamma=0.1375, alpha=0.0175
4.6384710349386396E-4
% TCTL (m^2) @ t=1, gamma=0.1375, alpha=0.0175
0.8785992147172982
% TCN (m^2) @ t=1, gamma=0.1375, alpha=0.0175
5.220770521856958E-4
% TCTL (m^2) @ t=2, gamma=0.1375, alpha=0.0175
0.8649133445139265
% TCN (m^2) @ t=2, gamma=0.1375, alpha=0.0175
5.881934305993907E-4
% TCTL (m^2) @ t=3, gamma=0.1375, alpha=0.0175
0.8568978577676949
% TCN (m^2) @ t=3, gamma=0.1375, alpha=0.0175
6.615205177272368E-4
% TCTL (m^2) @ t=4, gamma=0.1375, alpha=0.0175
0.8544969928749625
% TCN (m^2) @ t=4, gamma=0.1375, alpha=0.0175
7.437873599521006E-4
% TCTL (m^2) @ t=5, gamma=0.1375, alpha=0.0175
0.8574683516726948
% TCN (m^2) @ t=5, gamma=0.1375, alpha=0.0175
8.364147716756164E-4
% TCTL (m^2) @ t=6, gamma=0.1375, alpha=0.0175
0.8651132488912161
% TCN (m^2) @ t=6, gamma=0.1375, alpha=0.0175
9.405924618049902E-4
% TCTL (m^2) @ t=7, gamma=0.1375, alpha=0.0175
0.877245923937143
% TCN (m^2) @ t=7, gamma=0.1375, alpha=0.0175
0.0010570663527710309
% TCTL (m^2) @ t=8, gamma=0.1375, alpha=0.0175
0.8933849669604318
% TCN (m^2) @ t=8, gamma=0.1375, alpha=0.0175
0.0011872859292912008
% TCTL (m^2) @ t=9, gamma=0.1375, alpha=0.0175
0.9129689868757921
% TCN (m^2) @ t=9, gamma=0.1375, alpha=0.0175
0.0013336554524820375
% TCTL (m^2) @ t=10, gamma=0.1375, alpha=0.0175
0.9359558491013611
% TCN (m^2) @ t=10, gamma=0.1375, alpha=0.0175
0.0014964225783482708
% TCTL (m^2) @ t=11, gamma=0.1375, alpha=0.0175
0.9617994465300357
% TCN (m^2) @ t=11, gamma=0.1375, alpha=0.0175
0.00167803986948531
% TCTL (m^2) @ t=12, gamma=0.1375, alpha=0.0175
0.9904258295218018
% TCN (m^2) @ t=12, gamma=0.1375, alpha=0.0175
0.0018806249108516307
% TCTL (m^2) @ t=13, gamma=0.1375, alpha=0.0175
1.0216429897872583
% TCN (m^2) @ t=13, gamma=0.1375, alpha=0.0175
0.002106400567469361
% TCTL (m^2) @ t=14, gamma=0.1375, alpha=0.0175
1.0552381580910268
% TCN (m^2) @ t=14, gamma=0.1375, alpha=0.0175
0.0023574731624496524
% TCTL (m^2) @ t=15, gamma=0.1375, alpha=0.0175
1.0911273479329855
% TCN (m^2) @ t=15, gamma=0.1375, alpha=0.0175
0.002636471904249697
% TCTL (m^2) @ t=16, gamma=0.1375, alpha=0.0175
1.1291495632226587
% TCN (m^2) @ t=16, gamma=0.1375, alpha=0.0175
0.0029457234709593357
% TCTL (m^2) @ t=17, gamma=0.1375, alpha=0.0175
1.1691263061780415
% TCN (m^2) @ t=17, gamma=0.1375, alpha=0.0175
0.003287485785684231
% TCTL (m^2) @ t=18, gamma=0.1375, alpha=0.0175
1.2111594040519829
% TCN (m^2) @ t=18, gamma=0.1375, alpha=0.0175
0.0036648138863916084
% TCTL (m^2) @ t=19, gamma=0.1375, alpha=0.0175
1.2552127485848539
% TCN (m^2) @ t=19, gamma=0.1375, alpha=0.0175
0.004080380874888217
% TCTL (m^2) @ t=20, gamma=0.1375, alpha=0.0175
1.3011438571454534
% TCN (m^2) @ t=20, gamma=0.1375, alpha=0.0175
0.004536565307955264
% TCTL (m^2) @ t=21, gamma=0.1375, alpha=0.0175
1.3490665226019944