% Model:              MODEL_SC_3_0.15_II.mph
% Version:            COMSOL 5.6.0.401
% Date:               May 21 2022, 13:16
% Dimension:          0
% Nodes:              12462
% Expressions:        12462
% Description:        , 
% TCTL (m^2) @ t=0, gamma=0.1575, alpha=0.015
0.8999932415398402
% TCN (m^2) @ t=0, gamma=0.1575, alpha=0.015
4.6384110325340994E-4
% TCTL (m^2) @ t=1, gamma=0.1575, alpha=0.015
0.8867636478362078
% TCN (m^2) @ t=1, gamma=0.1575, alpha=0.015
5.046243857922359E-4
% TCTL (m^2) @ t=2, gamma=0.1575, alpha=0.015
0.879686720457233
% TCN (m^2) @ t=2, gamma=0.1575, alpha=0.015
5.489025356406024E-4
% TCTL (m^2) @ t=3, gamma=0.1575, alpha=0.015
0.8774214708631081
% TCN (m^2) @ t=3, gamma=0.1575, alpha=0.015
5.96411022807942E-4
% TCTL (m^2) @ t=4, gamma=0.1575, alpha=0.015
0.8803788980681704
% TCN (m^2) @ t=4, gamma=0.1575, alpha=0.015
6.481523957627776E-4
% TCTL (m^2) @ t=5, gamma=0.1575, alpha=0.015
0.8884196034792274
% TCN (m^2) @ t=5, gamma=0.1575, alpha=0.015
7.044629145287879E-4
% TCTL (m^2) @ t=6, gamma=0.1575, alpha=0.015
0.9013889052737079
% TCN (m^2) @ t=6, gamma=0.1575, alpha=0.015
7.6567949760737E-4
% TCTL (m^2) @ t=7, gamma=0.1575, alpha=0.015
0.9191604483447993
% TCN (m^2) @ t=7, gamma=0.1575, alpha=0.015
8.323516051807786E-4
% TCTL (m^2) @ t=8, gamma=0.1575, alpha=0.015
0.9416200716412271
% TCN (m^2) @ t=8, gamma=0.1575, alpha=0.015
9.051029156825024E-4
% TCTL (m^2) @ t=9, gamma=0.1575, alpha=0.015
0.9687236930167296
% TCN (m^2) @ t=9, gamma=0.1575, alpha=0.015
9.841889300744768E-4
% TCTL (m^2) @ t=10, gamma=0.1575, alpha=0.015
1.0003700775486073
% TCN (m^2) @ t=10, gamma=0.1575, alpha=0.015
0.0010702877294454306
% TCTL (m^2) @ t=11, gamma=0.1575, alpha=0.015
1.0365854145709985
% TCN (m^2) @ t=11, gamma=0.1575, alpha=0.015
0.0011640118649068893
% TCTL (m^2) @ t=12, gamma=0.1575, alpha=0.015
1.0773409554194835
% TCN (m^2) @ t=12, gamma=0.1575, alpha=0.015
0.0012659439358454492
% TCTL (m^2) @ t=13, gamma=0.1575, alpha=0.015
1.1226539733890752
% TCN (m^2) @ t=13, gamma=0.1575, alpha=0.015
0.0013767005194350364
% TCTL (m^2) @ t=14, gamma=0.1575, alpha=0.015
1.1725554443025594
% TCN (m^2) @ t=14, gamma=0.1575, alpha=0.015
0.0014969032592542417
% TCTL (m^2) @ t=15, gamma=0.1575, alpha=0.015
1.2270364693455655
% TCN (m^2) @ t=15, gamma=0.1575, alpha=0.015
0.0016271590555400463
% TCTL (m^2) @ t=16, gamma=0.1575, alpha=0.015
1.286275968113679
% TCN (m^2) @ t=16, gamma=0.1575, alpha=0.015
0.0017680116304377679
% TCTL (m^2) @ t=17, gamma=0.1575, alpha=0.015
1.350309684945701
% TCN (m^2) @ t=17, gamma=0.1575, alpha=0.015
0.0019200616557986392
% TCTL (m^2) @ t=18, gamma=0.1575, alpha=0.015
1.4192135526792584
% TCN (m^2) @ t=18, gamma=0.1575, alpha=0.015
0.002083821017442476
% TCTL (m^2) @ t=19, gamma=0.1575, alpha=0.015
1.49326747470806
% TCN (m^2) @ t=19, gamma=0.1575, alpha=0.015
0.002259280862128414
% TCTL (m^2) @ t=20, gamma=0.1575, alpha=0.015
1.5725200724554693
% TCN (m^2) @ t=20, gamma=0.1575, alpha=0.015
0.002447060326100849
% TCTL (m^2) @ t=21, gamma=0.1575, alpha=0.015
1.6571921844687676
% TCN (m^2) @ t=21, gamma=0.1575, alpha=0.015
0.0026470258168277126
% TCTL (m^2) @ t=22, gamma=0.1575, alpha=0.015
1.7475678025074926
% TCN (m^2) @ t=22, gamma=0.1575, alpha=0.015
0.0028586914421516486
% TCTL (m^2) @ t=23, gamma=0.1575, alpha=0.015
1.8437748421857547
% TCN (m^2) @ t=23, gamma=0.1575, alpha=0.015
0.003082441979285888
% TCTL (m^2) @ t=24, gamma=0.1575, alpha=0.015
1.9462969285521712
% TCN (m^2) @ t=24, gamma=0.1575, alpha=0.015
0.0033169328141315164
% TCTL (m^2) @ t=25, gamma=0.1575, alpha=0.015
2.0555365791850777
% TCN (m^2) @ t=25, gamma=0.1575, alpha=0.015
0.0035612024379924195
% TCTL (m^2) @ t=26, gamma=0.1575, alpha=0.015
2.1718745895663343
% TCN (m^2) @ t=26, gamma=0.1575, alpha=0.015
0.0038143326203366424
% TCTL (m^2) @ t=27, gamma=0.1575, alpha=0.015
2.295590555898811
% TCN (m^2) @ t=27, gamma=0.1575, alpha=0.015
0.00407506711626765
% TCTL (m^2) @ t=28, gamma=0.1575, alpha=0.015
2.427152990611823
% TCN (m^2) @ t=28, gamma=0.1575, alpha=0.015
0.0043418831565177896
% TCTL (m^2) @ t=29, gamma=0.1575, alpha=0.015
2.566937133241077
% TCN (m^2) @ t=29, gamma=0.1575, alpha=0.015
0.004612885576276159
% TCTL (m^2) @ t=30, gamma=0.1575, alpha=0.015
2.715217088584768
% TCN (m^2) @ t=30, gamma=0.1575, alpha=0.015
0.004885640312368129
% TCTL (m^2) @ t=31, gamma=0.1575, alpha=0.015
2.872404287728815
% TCN (m^2) @ t=31, gamma=0.1575, alpha=0.015
0.005157801758642549
% TCTL (m^2) @ t=32, gamma=0.1575, alpha=0.015
3.0390443517316426
% TCN (m^2) @ t=32, gamma=0.1575, alpha=0.015
0.005426660609814402
% TCTL (m^2) @ t=33, gamma=0.1575, alpha=0.015
3.215675979640608
% TCN (m^2) @ t=33, gamma=0.1575, alpha=0.015
0.005689229477741092
% TCTL (m^2) @ t=34, gamma=0.1575, alpha=0.015
3.4028013854204113
% TCN (m^2) @ t=34, gamma=0.1575, alpha=0.015
0.005942209991277983
% TCTL (m^2) @ t=35, gamma=0.1575, alpha=0.015
3.601198159613753
% TCN (m^2) @ t=35, gamma=0.1575, alpha=0.015
0.00618125248605491
% TCTL (m^2) @ t=36, gamma=0.1575, alpha=0.015
3.8113572040846586
% TCN (m^2) @ t=36, gamma=0.1575, alpha=0.015
0.006403386789174521
% TCTL (m^2) @ t=37, gamma=0.1575, alpha=0.015
4.033940259466049
% TCN (m^2) @ t=37, gamma=0.1575, alpha=0.015
0.006605126983277229
% TCTL (m^2) @ t=38, gamma=0.1575, alpha=0.015
4.269781452724819
% TCN (m^2) @ t=38, gamma=0.1575, alpha=0.015
0.006782809539278522
% TCTL (m^2) @ t=39, gamma=0.1575, alpha=0.015
4.519455345779329
% TCN (m^2) @ t=39, gamma=0.1575, alpha=0.015
0.00693303836110276
% TCTL (m^2) @ t=40, gamma=0.1575, alpha=0.015
4.7838692835687215
% TCN (m^2) @ t=40, gamma=0.1575, alpha=0.015
0.00705243366557308
% TCTL (m^2) @ t=41, gamma=0.1575, alpha=0.015
5.0638886618629755
% TCN (m^2) @ t=41, gamma=0.1575, alpha=0.015
0.007137597595987807
% TCTL (m^2) @ t=42, gamma=0.1575, alpha=0.015
5.36021056138827
% TCN (m^2) @ t=42, gamma=0.1575, alpha=0.015
0.007185059778210715
% TCTL (m^2) @ t=43, gamma=0.1575, alpha=0.015
5.674100099734554
% TCN (m^2) @ t=43, gamma=0.1575, alpha=0.015
0.007195342850347581
% TCTL (m^2) @ t=44, gamma=0.1575, alpha=0.015
6.006333802788612
% TCN (m^2) @ t=44, gamma=0.1575, alpha=0.015
0.0071650361137184215
% TCTL (m^2) @ t=45, gamma=0.1575, alpha=0.015
6.35789177483554
% TCN (m^2) @ t=45, gamma=0.1575, alpha=0.015
0.007092605292802931
% TCTL (m^2) @ t=46, gamma=0.1575, alpha=0.015
6.730059574767671
% TCN (m^2) @ t=46, gamma=0.1575, alpha=0.015
0.006979781876269356
% TCTL (m^2) @ t=47, gamma=0.1575, alpha=0.015
7.123730042306627
% TCN (m^2) @ t=47, gamma=0.1575, alpha=0.015
0.006824056772387642
% TCTL (m^2) @ t=48, gamma=0.1575, alpha=0.015
7.541577776515621
% TCN (m^2) @ t=48, gamma=0.1575, alpha=0.015
0.006628617689120818
% TCTL (m^2) @ t=49, gamma=0.1575, alpha=0.015
7.9844074455800795
% TCN (m^2) @ t=49, gamma=0.1575, alpha=0.015
0.0063960367685215735
% TCTL (m^2) @ t=50, gamma=0.1575, alpha=0.015
8.45121988898068
% TCN (m^2) @ t=50, gamma=0.1575, alpha=0.015
0.006124309312945695
% TCTL (m^2) @ t=51, gamma=0.1575, alpha=0.015
8.946154563539269
% TCN (m^2) @ t=51, gamma=0.1575, alpha=0.015
0.005827520473812856
% TCTL (m^2) @ t=52, gamma=0.1575, alpha=0.015
9.468061201449252
% TCN (m^2) @ t=52, gamma=0.1575, alpha=0.015
0.005501756284405402
% TCTL (m^2) @ t=53, gamma=0.1575, alpha=0.015
10.01737641503526
% TCN (m^2) @ t=53, gamma=0.1575, alpha=0.015
0.005149420937821694
% TCTL (m^2) @ t=54, gamma=0.1575, alpha=0.015
10.598388999808051
% TCN (m^2) @ t=54, gamma=0.1575, alpha=0.015
0.0047899285282398275
% TCTL (m^2) @ t=55, gamma=0.1575, alpha=0.015
11.208895119512828
% TCN (m^2) @ t=55, gamma=0.1575, alpha=0.015
0.004413302948266315
% TCTL (m^2) @ t=56, gamma=0.1575, alpha=0.015
11.849901368535994
% TCN (m^2) @ t=56, gamma=0.1575, alpha=0.015
0.004030666362441131
% TCTL (m^2) @ t=57, gamma=0.1575, alpha=0.015
12.522335502517222
% TCN (m^2) @ t=57, gamma=0.1575, alpha=0.015
0.0036522698222472855
% TCTL (m^2) @ t=58, gamma=0.1575, alpha=0.015
13.225515066752788
% TCN (m^2) @ t=58, gamma=0.1575, alpha=0.015
0.003270572680122561
% TCTL (m^2) @ t=59, gamma=0.1575, alpha=0.015
13.955963499472194
% TCN (m^2) @ t=59, gamma=0.1575, alpha=0.015
0.002898382471345096
% TCTL (m^2) @ t=60, gamma=0.1575, alpha=0.015
14.712524590132645
% TCN (m^2) @ t=60, gamma=0.1575, alpha=0.015
0.0025399586362162595
% TCTL (m^2) @ t=61, gamma=0.1575, alpha=0.015
15.492214161587993
% TCN (m^2) @ t=61, gamma=0.1575, alpha=0.015
0.0021979897922822455
% TCTL (m^2) @ t=62, gamma=0.1575, alpha=0.015
16.266495774295855
% TCN (m^2) @ t=62, gamma=0.1575, alpha=0.015
0.0018781306045839625
% TCTL (m^2) @ t=63, gamma=0.1575, alpha=0.015
17.035640200240753
% TCN (m^2) @ t=63, gamma=0.1575, alpha=0.015
0.0015846753143363358
% TCTL (m^2) @ t=64, gamma=0.1575, alpha=0.015
17.769253780268382
% TCN (m^2) @ t=64, gamma=0.1575, alpha=0.015
0.0013192974196805781
% TCTL (m^2) @ t=65, gamma=0.1575, alpha=0.015
18.411549422989964
% TCN (m^2) @ t=65, gamma=0.1575, alpha=0.015
0.001080133494079598
% TCTL (m^2) @ t=66, gamma=0.1575, alpha=0.015
18.95348261125521
% TCN (m^2) @ t=66, gamma=0.1575, alpha=0.015
8.718306513133653E-4
% TCTL (m^2) @ t=67, gamma=0.1575, alpha=0.015
19.2798691659006
% TCN (m^2) @ t=67, gamma=0.1575, alpha=0.015
6.925636146398937E-4
% TCTL (m^2) @ t=68, gamma=0.1575, alpha=0.015
19.316449069667932
% TCN (m^2) @ t=68, gamma=0.1575, alpha=0.015
5.424169728179531E-4
% TCTL (m^2) @ t=69, gamma=0.1575, alpha=0.015
19.04010546892436
% TCN (m^2) @ t=69, gamma=0.1575, alpha=0.015
4.210956196833111E-4
% TCTL (m^2) @ t=70, gamma=0.1575, alpha=0.015
18.458964636327522
% TCN (m^2) @ t=70, gamma=0.1575, alpha=0.015
3.2209217704506335E-4
% TCTL (m^2) @ t=71, gamma=0.1575, alpha=0.015
17.534658995464635
% TCN (m^2) @ t=71, gamma=0.1575, alpha=0.015
2.454456208052135E-4
% TCTL (m^2) @ t=72, gamma=0.1575, alpha=0.015
16.454862805675134
% TCN (m^2) @ t=72, gamma=0.1575, alpha=0.015
1.8473542758046284E-4
% TCTL (m^2) @ t=73, gamma=0.1575, alpha=0.015
15.214925014792932
% TCN (m^2) @ t=73, gamma=0.1575, alpha=0.015
1.3783210922939414E-4
% TCTL (m^2) @ t=74, gamma=0.1575, alpha=0.015
13.945012568177338
% TCN (m^2) @ t=74, gamma=0.1575, alpha=0.015
1.0215173202635371E-4
% TCTL (m^2) @ t=75, gamma=0.1575, alpha=0.015
12.692739134947256
% TCN (m^2) @ t=75, gamma=0.1575, alpha=0.015
7.498998475514033E-5
% TCTL (m^2) @ t=76, gamma=0.1575, alpha=0.015
11.49848802407282
% TCN (m^2) @ t=76, gamma=0.1575, alpha=0.015
5.49924681337952E-5
% TCTL (m^2) @ t=77, gamma=0.1575, alpha=0.015
10.395199771816328
% TCN (m^2) @ t=77, gamma=0.1575, alpha=0.015
4.050954825161585E-5
% TCTL (m^2) @ t=78, gamma=0.1575, alpha=0.015
9.392561751150545
% TCN (m^2) @ t=78, gamma=0.1575, alpha=0.015
3.0634912648816565E-5
% TCTL (m^2) @ t=79, gamma=0.1575, alpha=0.015
8.489708811458604
% TCN (m^2) @ t=79, gamma=0.1575, alpha=0.015
2.3217488343216815E-5
% TCTL (m^2) @ t=80, gamma=0.1575, alpha=0.015
7.676222059282457
% TCN (m^2) @ t=80, gamma=0.1575, alpha=0.015
1.7954357112282123E-5
% TCTL (m^2) @ t=81, gamma=0.1575, alpha=0.015
6.940986109422592
% TCN (m^2) @ t=81, gamma=0.1575, alpha=0.015
1.4102481004352063E-5
% TCTL (m^2) @ t=82, gamma=0.1575, alpha=0.015
6.275268760094047
% TCN (m^2) @ t=82, gamma=0.1575, alpha=0.015
1.1249152556057697E-5
% TCTL (m^2) @ t=83, gamma=0.1575, alpha=0.015
5.673306491676726
% TCN (m^2) @ t=83, gamma=0.1575, alpha=0.015
9.171553770734964E-6
% TCTL (m^2) @ t=84, gamma=0.1575, alpha=0.015
5.129618200279067
% TCN (m^2) @ t=84, gamma=0.1575, alpha=0.015
7.672995125264613E-6
% TCTL (m^2) @ t=85, gamma=0.1575, alpha=0.015
4.63849902938022
% TCN (m^2) @ t=85, gamma=0.1575, alpha=0.015
6.5881546099764366E-6
% TCTL (m^2) @ t=86, gamma=0.1575, alpha=0.015
4.195445575446209
% TCN (m^2) @ t=86, gamma=0.1575, alpha=0.015
5.830043319010515E-6
% TCTL (m^2) @ t=87, gamma=0.1575, alpha=0.015
3.795907648579982
% TCN (m^2) @ t=87, gamma=0.1575, alpha=0.015
5.32438325155121E-6
% TCTL (m^2) @ t=88, gamma=0.1575, alpha=0.015
3.4347467769389266
% TCN (m^2) @ t=88, gamma=0.1575, alpha=0.015
4.998218323688277E-6
% TCTL (m^2) @ t=89, gamma=0.1575, alpha=0.015
3.1083967774622745
% TCN (m^2) @ t=89, gamma=0.1575, alpha=0.015
4.806165647856012E-6
% TCTL (m^2) @ t=90, gamma=0.1575, alpha=0.015
2.813239785641516
% TCN (m^2) @ t=90, gamma=0.1575, alpha=0.015
4.7091241458063095E-6
% TCTL (m^2) @ t=91, gamma=0.1575, alpha=0.015
2.5460649084437788
% TCN (m^2) @ t=91, gamma=0.1575, alpha=0.015
4.675118418461943E-6
% TCTL (m^2) @ t=92, gamma=0.1575, alpha=0.015
2.3036895047599866
% TCN (m^2) @ t=92, gamma=0.1575, alpha=0.015
4.69562978601997E-6
% TCTL (m^2) @ t=93, gamma=0.1575, alpha=0.015
2.0832914123752513
% TCN (m^2) @ t=93, gamma=0.1575, alpha=0.015
4.799566873030075E-6
% TCTL (m^2) @ t=94, gamma=0.1575, alpha=0.015
1.8832716819317172
% TCN (m^2) @ t=94, gamma=0.1575, alpha=0.015
4.984881426673628E-6
% TCTL (m^2) @ t=95, gamma=0.1575, alpha=0.015
1.702420163808432
% TCN (m^2) @ t=95, gamma=0.1575, alpha=0.015
5.255075209921291E-6
% TCTL (m^2) @ t=96, gamma=0.1575, alpha=0.015
1.5380039530256426
% TCN (m^2) @ t=96, gamma=0.1575, alpha=0.015
5.624280428179539E-6
% TCTL (m^2) @ t=97, gamma=0.1575, alpha=0.015
1.3898405575069224
% TCN (m^2) @ t=97, gamma=0.1575, alpha=0.015
6.096504364801887E-6
% TCTL (m^2) @ t=98, gamma=0.1575, alpha=0.015
1.2556949116440406
% TCN (m^2) @ t=98, gamma=0.1575, alpha=0.015
6.68922893189236E-6
% TCTL (m^2) @ t=99, gamma=0.1575, alpha=0.015
1.1349997613978169
% TCN (m^2) @ t=99, gamma=0.1575, alpha=0.015
7.420692619725782E-6
% TCTL (m^2) @ t=100, gamma=0.1575, alpha=0.015
1.026292921482154
% TCN (m^2) @ t=100, gamma=0.1575, alpha=0.015
8.317367684152033E-6
% TCTL (m^2) @ t=101, gamma=0.1575, alpha=0.015
0.9286706308895252
% TCN (m^2) @ t=101, gamma=0.1575, alpha=0.015
9.395616341947413E-6
% TCTL (m^2) @ t=102, gamma=0.1575, alpha=0.015
0.8409278113304526
% TCN (m^2) @ t=102, gamma=0.1575, alpha=0.015
1.069199868365375E-5
% TCTL (m^2) @ t=103, gamma=0.1575, alpha=0.015
0.7617836695699296
% TCN (m^2) @ t=103, gamma=0.1575, alpha=0.015
1.2254123341164964E-5
% TCTL (m^2) @ t=104, gamma=0.1575, alpha=0.015
0.6901529618657878
% TCN (m^2) @ t=104, gamma=0.1575, alpha=0.015
1.410106380521602E-5
% TCTL (m^2) @ t=105, gamma=0.1575, alpha=0.015
0.625086749909247
% TCN (m^2) @ t=105, gamma=0.1575, alpha=0.015
1.6279834449608645E-5
% TCTL (m^2) @ t=106, gamma=0.1575, alpha=0.015
0.5667500714324896
% TCN (m^2) @ t=106, gamma=0.1575, alpha=0.015
1.8925680866839816E-5
% TCTL (m^2) @ t=107, gamma=0.1575, alpha=0.015
0.5137181620770905
% TCN (m^2) @ t=107, gamma=0.1575, alpha=0.015
2.2047930163926074E-5
% TCTL (m^2) @ t=108, gamma=0.1575, alpha=0.015
0.46511463609731796
% TCN (m^2) @ t=108, gamma=0.1575, alpha=0.015
2.5699343158777245E-5
% TCTL (m^2) @ t=109, gamma=0.1575, alpha=0.015
0.42155955961555397
% TCN (m^2) @ t=109, gamma=0.1575, alpha=0.015
3.013443323789351E-5
% TCTL (m^2) @ t=110, gamma=0.1575, alpha=0.015
0.38210979499445485
% TCN (m^2) @ t=110, gamma=0.1575, alpha=0.015
3.539696168777406E-5
% TCTL (m^2) @ t=111, gamma=0.1575, alpha=0.015
0.34610243219831643
% TCN (m^2) @ t=111, gamma=0.1575, alpha=0.015
4.156847025389968E-5
% TCTL (m^2) @ t=112, gamma=0.1575, alpha=0.015
0.31357951534308454
% TCN (m^2) @ t=112, gamma=0.1575, alpha=0.015
4.895246168344579E-5
% TCTL (m^2) @ t=113, gamma=0.1575, alpha=0.015
0.2844246346434125
% TCN (m^2) @ t=113, gamma=0.1575, alpha=0.015
5.779766088548382E-5
% TCTL (m^2) @ t=114, gamma=0.1575, alpha=0.015
0.25804943716053175
% TCN (m^2) @ t=114, gamma=0.1575, alpha=0.015
6.818964105465868E-5
% TCTL (m^2) @ t=115, gamma=0.1575, alpha=0.015
0.23422983960533378
% TCN (m^2) @ t=115, gamma=0.1575, alpha=0.015
8.044425136642306E-5
% TCTL (m^2) @ t=116, gamma=0.1575, alpha=0.015
0.2130483566914836
% TCN (m^2) @ t=116, gamma=0.1575, alpha=0.015
9.523237777999312E-5
% TCTL (m^2) @ t=117, gamma=0.1575, alpha=0.015
0.19421828017002607
% TCN (m^2) @ t=117, gamma=0.1575, alpha=0.015
1.1279735052377405E-4
% TCTL (m^2) @ t=118, gamma=0.1575, alpha=0.015
0.17762691298616262
% TCN (m^2) @ t=118, gamma=0.1575, alpha=0.015
1.3359519513019648E-4
% TCTL (m^2) @ t=119, gamma=0.1575, alpha=0.015
0.16307350819131883
% TCN (m^2) @ t=119, gamma=0.1575, alpha=0.015
1.5831854048947082E-4
% TCTL (m^2) @ t=120, gamma=0.1575, alpha=0.015
0.15051401120444224
% TCN (m^2) @ t=120, gamma=0.1575, alpha=0.015
1.8751244899472522E-4
% TCTL (m^2) @ t=121, gamma=0.1575, alpha=0.015
0.13989031802202403
% TCN (m^2) @ t=121, gamma=0.1575, alpha=0.015
2.2184242848373502E-4
% TCTL (m^2) @ t=122, gamma=0.1575, alpha=0.015
0.13108303773793203
% TCN (m^2) @ t=122, gamma=0.1575, alpha=0.015
2.6235889320954753E-4
% TCTL (m^2) @ t=123, gamma=0.1575, alpha=0.015
0.1240375056215752
% TCN (m^2) @ t=123, gamma=0.1575, alpha=0.015
3.100282198609456E-4
% TCTL (m^2) @ t=124, gamma=0.1575, alpha=0.015
0.11873864148434726
% TCN (m^2) @ t=124, gamma=0.1575, alpha=0.015
3.6582630942018135E-4
% TCTL (m^2) @ t=125, gamma=0.1575, alpha=0.015
0.11509838011821444
% TCN (m^2) @ t=125, gamma=0.1575, alpha=0.015
4.311536060594445E-4
% TCTL (m^2) @ t=126, gamma=0.1575, alpha=0.015
0.11298048252750659
% TCN (m^2) @ t=126, gamma=0.1575, alpha=0.015
5.077432223079786E-4
% TCTL (m^2) @ t=127, gamma=0.1575, alpha=0.015
0.11237435074137489
% TCN (m^2) @ t=127, gamma=0.1575, alpha=0.015
5.970230884553558E-4
% TCTL (m^2) @ t=128, gamma=0.1575, alpha=0.015
0.11320249065553983
% TCN (m^2) @ t=128, gamma=0.1575, alpha=0.015
7.00852488917797E-4
% TCTL (m^2) @ t=129, gamma=0.1575, alpha=0.015
0.11524290392148229
% TCN (m^2) @ t=129, gamma=0.1575, alpha=0.015
8.219546252165094E-4
% TCTL (m^2) @ t=130, gamma=0.1575, alpha=0.015
0.11843580330281567
% TCN (m^2) @ t=130, gamma=0.1575, alpha=0.015
9.624255575608654E-4
% TCTL (m^2) @ t=131, gamma=0.1575, alpha=0.015
0.12265644033832053
% TCN (m^2) @ t=131, gamma=0.1575, alpha=0.015
0.0011248385748059788
% TCTL (m^2) @ t=132, gamma=0.1575, alpha=0.015
0.1278031858140027
% TCN (m^2) @ t=132, gamma=0.1575, alpha=0.015
0.0013129394953766858
% TCTL (m^2) @ t=133, gamma=0.1575, alpha=0.015
0.13374141640671786
% TCN (m^2) @ t=133, gamma=0.1575, alpha=0.015
0.0015299185921992904
% TCTL (m^2) @ t=134, gamma=0.1575, alpha=0.015
0.14033494394028373
% TCN (m^2) @ t=134, gamma=0.1575, alpha=0.015
0.0017793784926349266
% TCTL (m^2) @ t=135, gamma=0.1575, alpha=0.015
0.14765747453195438
% TCN (m^2) @ t=135, gamma=0.1575, alpha=0.015
0.002067196818265591
% TCTL (m^2) @ t=136, gamma=0.1575, alpha=0.015
0.15573217594288843
% TCN (m^2) @ t=136, gamma=0.1575, alpha=0.015
0.0023982204313569063
% TCTL (m^2) @ t=137, gamma=0.1575, alpha=0.015
0.1644198353186776
% TCN (m^2) @ t=137, gamma=0.1575, alpha=0.015
0.0027758278368667563
% TCTL (m^2) @ t=138, gamma=0.1575, alpha=0.015
0.17373003144614874
% TCN (m^2) @ t=138, gamma=0.1575, alpha=0.015
0.0032058430799128874
% TCTL (m^2) @ t=139, gamma=0.1575, alpha=0.015
0.18379184953081384
% TCN (m^2) @ t=139, gamma=0.1575, alpha=0.015
0.0036969256043200794
% TCTL (m^2) @ t=140, gamma=0.1575, alpha=0.015
0.19451251925071902
% TCN (m^2) @ t=140, gamma=0.1575, alpha=0.015
0.004252471129314407
% TCTL (m^2) @ t=141, gamma=0.1575, alpha=0.015
0.20589071429999134
% TCN (m^2) @ t=141, gamma=0.1575, alpha=0.015
0.004878202080669601
% TCTL (m^2) @ t=142, gamma=0.1575, alpha=0.015
0.21815443094757586
% TCN (m^2) @ t=142, gamma=0.1575, alpha=0.015
0.005589099757749771
% TCTL (m^2) @ t=143, gamma=0.1575, alpha=0.015
0.23124373986516314
% TCN (m^2) @ t=143, gamma=0.1575, alpha=0.015
0.006388520495780565
% TCTL (m^2) @ t=144, gamma=0.1575, alpha=0.015
0.24519372943302556
% TCN (m^2) @ t=144, gamma=0.1575, alpha=0.015
0.007283656959460657
% TCTL (m^2) @ t=145, gamma=0.1575, alpha=0.015
0.2601008147008436
% TCN (m^2) @ t=145, gamma=0.1575, alpha=0.015
0.008289779367798102
% TCTL (m^2) @ t=146, gamma=0.1575, alpha=0.015
0.27601565182982996
% TCN (m^2) @ t=146, gamma=0.1575, alpha=0.015
0.009416130873431447
% TCTL (m^2) @ t=147, gamma=0.1575, alpha=0.015
0.29297749667896006
% TCN (m^2) @ t=147, gamma=0.1575, alpha=0.015
0.010670453054540077
% TCTL (m^2) @ t=148, gamma=0.1575, alpha=0.015
0.3110287335873169
% TCN (m^2) @ t=148, gamma=0.1575, alpha=0.015
0.012066321388696965
% TCTL (m^2) @ t=149, gamma=0.1575, alpha=0.015
0.33020809835832876
% TCN (m^2) @ t=149, gamma=0.1575, alpha=0.015
0.01361909479148659
% TCTL (m^2) @ t=150, gamma=0.1575, alpha=0.015
0.35056848845477473
% TCN (m^2) @ t=150, gamma=0.1575, alpha=0.015
0.015337209828274998
% TCTL (m^2) @ t=151, gamma=0.1575, alpha=0.015
0.37213544112296354
% TCN (m^2) @ t=151, gamma=0.1575, alpha=0.015
0.017232918563837185
% TCTL (m^2) @ t=152, gamma=0.1575, alpha=0.015
0.39481164025627236
% TCN (m^2) @ t=152, gamma=0.1575, alpha=0.015
0.01932398094436969
% TCTL (m^2) @ t=153, gamma=0.1575, alpha=0.015
0.4186300334658215
% TCN (m^2) @ t=153, gamma=0.1575, alpha=0.015
0.021622316805939734
% TCTL (m^2) @ t=154, gamma=0.1575, alpha=0.015
0.4435658598850043
% TCN (m^2) @ t=154, gamma=0.1575, alpha=0.015
0.02414243322741082
% TCTL (m^2) @ t=155, gamma=0.1575, alpha=0.015
0.4698047242911072
% TCN (m^2) @ t=155, gamma=0.1575, alpha=0.015
0.026896067449044922
% TCTL (m^2) @ t=156, gamma=0.1575, alpha=0.015
0.4973462497786838
% TCN (m^2) @ t=156, gamma=0.1575, alpha=0.015
0.029898020338058346
% TCTL (m^2) @ t=157, gamma=0.1575, alpha=0.015
0.526229556430885
% TCN (m^2) @ t=157, gamma=0.1575, alpha=0.015
0.033162837778971686
% TCTL (m^2) @ t=158, gamma=0.1575, alpha=0.015
0.5566169548701766
% TCN (m^2) @ t=158, gamma=0.1575, alpha=0.015
0.036701902125685915
% TCTL (m^2) @ t=159, gamma=0.1575, alpha=0.015
0.5886820576370698
% TCN (m^2) @ t=159, gamma=0.1575, alpha=0.015
0.04052667527486715
% TCTL (m^2) @ t=160, gamma=0.1575, alpha=0.015
0.6225410721089581
% TCN (m^2) @ t=160, gamma=0.1575, alpha=0.015
0.04465080962283716
% TCTL (m^2) @ t=161, gamma=0.1575, alpha=0.015
0.6583427248296041
% TCN (m^2) @ t=161, gamma=0.1575, alpha=0.015
0.04908442933521057
% TCTL (m^2) @ t=162, gamma=0.1575, alpha=0.015
0.696204589544553
% TCN (m^2) @ t=162, gamma=0.1575, alpha=0.015
0.05383243470988123
% TCTL (m^2) @ t=163, gamma=0.1575, alpha=0.015
0.7363261299518281
% TCN (m^2) @ t=163, gamma=0.1575, alpha=0.015
0.05890570295373474
% TCTL (m^2) @ t=164, gamma=0.1575, alpha=0.015
0.7788885956413334
% TCN (m^2) @ t=164, gamma=0.1575, alpha=0.015
0.06431148399367723
% TCTL (m^2) @ t=165, gamma=0.1575, alpha=0.015
0.8238964765360968
% TCN (m^2) @ t=165, gamma=0.1575, alpha=0.015
0.0700451137738521
% TCTL (m^2) @ t=166, gamma=0.1575, alpha=0.015
0.8715537574243641
% TCN (m^2) @ t=166, gamma=0.1575, alpha=0.015
0.07611200102090433
% TCTL (m^2) @ t=167, gamma=0.1575, alpha=0.015
0.9220004680730602
% TCN (m^2) @ t=167, gamma=0.1575, alpha=0.015
0.08251223231761909
% TCTL (m^2) @ t=168, gamma=0.1575, alpha=0.015
0.9753619536404561
% TCN (m^2) @ t=168, gamma=0.1575, alpha=0.015
0.08923491950214078
% TCTL (m^2) @ t=169, gamma=0.1575, alpha=0.015
1.0317698887911793
% TCN (m^2) @ t=169, gamma=0.1575, alpha=0.015
0.09627184076109288
% TCTL (m^2) @ t=170, gamma=0.1575, alpha=0.015
1.0913573011497246
% TCN (m^2) @ t=170, gamma=0.1575, alpha=0.015
0.10361421015642813
% TCTL (m^2) @ t=171, gamma=0.1575, alpha=0.015
1.1543226802671187
% TCN (m^2) @ t=171, gamma=0.1575, alpha=0.015
0.11124405590019285
% TCTL (m^2) @ t=172, gamma=0.1575, alpha=0.015
1.2209190609133713
% TCN (m^2) @ t=172, gamma=0.1575, alpha=0.015
0.11913679208235826
% TCTL (m^2) @ t=173, gamma=0.1575, alpha=0.015
1.2913039123738215
% TCN (m^2) @ t=173, gamma=0.1575, alpha=0.015
0.12727217336532048
% TCTL (m^2) @ t=174, gamma=0.1575, alpha=0.015
1.3657115165560065
% TCN (m^2) @ t=174, gamma=0.1575, alpha=0.015
0.13562212049783073
% TCTL (m^2) @ t=175, gamma=0.1575, alpha=0.015
1.4445244700295043
% TCN (m^2) @ t=175, gamma=0.1575, alpha=0.015
0.1441473239203966
% TCTL (m^2) @ t=176, gamma=0.1575, alpha=0.015
1.5279895412952733
% TCN (m^2) @ t=176, gamma=0.1575, alpha=0.015
0.15281338265864094
% TCTL (m^2) @ t=177, gamma=0.1575, alpha=0.015
1.6164292532468298
% TCN (m^2) @ t=177, gamma=0.1575, alpha=0.015
0.16157878674759452
% TCTL (m^2) @ t=178, gamma=0.1575, alpha=0.015
1.7100776730638318
% TCN (m^2) @ t=178, gamma=0.1575, alpha=0.015
0.17038696199551795
% TCTL (m^2) @ t=179, gamma=0.1575, alpha=0.015
1.809281178577368
% TCN (m^2) @ t=179, gamma=0.1575, alpha=0.015
0.17918601825467617
% TCTL (m^2) @ t=180, gamma=0.1575, alpha=0.015
1.9143825193113837
% TCN (m^2) @ t=180, gamma=0.1575, alpha=0.015
0.18791734515078695
% TCTL (m^2) @ t=181, gamma=0.1575, alpha=0.015
2.0259182423578115
% TCN (m^2) @ t=181, gamma=0.1575, alpha=0.015
0.1965046082618061
% TCTL (m^2) @ t=182, gamma=0.1575, alpha=0.015
2.14433960508309
% TCN (m^2) @ t=182, gamma=0.1575, alpha=0.015
0.2048841137632677
% TCTL (m^2) @ t=183, gamma=0.1575, alpha=0.015
2.269967233879565
% TCN (m^2) @ t=183, gamma=0.1575, alpha=0.015
0.21300063569525998
% TCTL (m^2) @ t=184, gamma=0.1575, alpha=0.015
2.4031722033534
% TCN (m^2) @ t=184, gamma=0.1575, alpha=0.015
0.22077755942306793
% TCTL (m^2) @ t=185, gamma=0.1575, alpha=0.015
2.544291047773606
% TCN (m^2) @ t=185, gamma=0.1575, alpha=0.015
0.22811318662719188
% TCTL (m^2) @ t=186, gamma=0.1575, alpha=0.015
2.693726245458852
% TCN (m^2) @ t=186, gamma=0.1575, alpha=0.015
0.23495370849621466
% TCTL (m^2) @ t=187, gamma=0.1575, alpha=0.015
2.8518759718171482
% TCN (m^2) @ t=187, gamma=0.1575, alpha=0.015
0.24122569065691465
% TCTL (m^2) @ t=188, gamma=0.1575, alpha=0.015
3.0195432697915976
% TCN (m^2) @ t=188, gamma=0.1575, alpha=0.015
0.24681934011995965
% TCTL (m^2) @ t=189, gamma=0.1575, alpha=0.015
3.197018714487088
% TCN (m^2) @ t=189, gamma=0.1575, alpha=0.015
0.25167088542104366
% TCTL (m^2) @ t=190, gamma=0.1575, alpha=0.015
3.3847625188813324
% TCN (m^2) @ t=190, gamma=0.1575, alpha=0.015
0.25570132098158704
% TCTL (m^2) @ t=191, gamma=0.1575, alpha=0.015
3.5836844856636647
% TCN (m^2) @ t=191, gamma=0.1575, alpha=0.015
0.2588605765938642
% TCTL (m^2) @ t=192, gamma=0.1575, alpha=0.015
3.794346829813682
% TCN (m^2) @ t=192, gamma=0.1575, alpha=0.015
0.2610762114775472
% TCTL (m^2) @ t=193, gamma=0.1575, alpha=0.015
4.017243294050479
% TCN (m^2) @ t=193, gamma=0.1575, alpha=0.015
0.2622713780115824
% TCTL (m^2) @ t=194, gamma=0.1575, alpha=0.015
4.253242453374535
% TCN (m^2) @ t=194, gamma=0.1575, alpha=0.015
0.26239061009292175
% TCTL (m^2) @ t=195, gamma=0.1575, alpha=0.015
4.5033157250542235
% TCN (m^2) @ t=195, gamma=0.1575, alpha=0.015
0.26138409745604785
% TCTL (m^2) @ t=196, gamma=0.1575, alpha=0.015
4.767983677108745
% TCN (m^2) @ t=196, gamma=0.1575, alpha=0.015
0.2591772352625978
% TCTL (m^2) @ t=197, gamma=0.1575, alpha=0.015
5.048572053253924
% TCN (m^2) @ t=197, gamma=0.1575, alpha=0.015
0.2557402221493757
% TCTL (m^2) @ t=198, gamma=0.1575, alpha=0.015
5.347843820949417
% TCN (m^2) @ t=198, gamma=0.1575, alpha=0.015
0.2512177779563443
% TCTL (m^2) @ t=199, gamma=0.1575, alpha=0.015
5.663922121796092
% TCN (m^2) @ t=199, gamma=0.1575, alpha=0.015
0.24553916316467894
% TCTL (m^2) @ t=200, gamma=0.1575, alpha=0.015
5.998029154497351
% TCN (m^2) @ t=200, gamma=0.1575, alpha=0.015
0.23872725184873497
% TCTL (m^2) @ t=0, gamma=0.1575, alpha=0.0175
0.8999932418145892
% TCN (m^2) @ t=0, gamma=0.1575, alpha=0.0175
4.6384710340658243E-4
% TCTL (m^2) @ t=1, gamma=0.1575, alpha=0.0175
0.8881078152071393
% TCN (m^2) @ t=1, gamma=0.1575, alpha=0.0175
5.214327671068728E-4
% TCTL (m^2) @ t=2, gamma=0.1575, alpha=0.0175
0.8845876053727937
% TCN (m^2) @ t=2, gamma=0.1575, alpha=0.0175
5.85798241464283E-4
% TCTL (m^2) @ t=3, gamma=0.1575, alpha=0.0175
0.8874774953412609
% TCN (m^2) @ t=3, gamma=0.1575, alpha=0.0175
6.562757794268188E-4
% TCTL (m^2) @ t=4, gamma=0.1575, alpha=0.0175
0.8971148622865572
% TCN (m^2) @ t=4, gamma=0.1575, alpha=0.0175
7.346370930108065E-4
% TCTL (m^2) @ t=5, gamma=0.1575, alpha=0.0175
0.91319130484883
% TCN (m^2) @ t=5, gamma=0.1575, alpha=0.0175
8.214801121300323E-4
% TCTL (m^2) @ t=6, gamma=0.1575, alpha=0.0175
0.9353812812940135
% TCN (m^2) @ t=6, gamma=0.1575, alpha=0.0175
9.174257305120434E-4
% TCTL (m^2) @ t=7, gamma=0.1575, alpha=0.0175
0.9633567587134315
% TCN (m^2) @ t=7, gamma=0.1575, alpha=0.0175
0.0010235212423503524
% TCTL (m^2) @ t=8, gamma=0.1575, alpha=0.0175
0.9968229573305295
% TCN (m^2) @ t=8, gamma=0.1575, alpha=0.0175
0.0011410338450016425
% TCTL (m^2) @ t=9, gamma=0.1575, alpha=0.0175
1.0356939901343676
% TCN (m^2) @ t=9, gamma=0.1575, alpha=0.0175
0.0012706068742761385
% TCTL (m^2) @ t=10, gamma=0.1575, alpha=0.0175
1.079736810537959
% TCN (m^2) @ t=10, gamma=0.1575, alpha=0.0175
0.0014138305449278546
% TCTL (m^2) @ t=11, gamma=0.1575, alpha=0.0175
1.1288069112176466
% TCN (m^2) @ t=11, gamma=0.1575, alpha=0.0175
0.0015716734340940433
% TCTL (m^2) @ t=12, gamma=0.1575, alpha=0.0175
1.182919156936542
% TCN (m^2) @ t=12, gamma=0.1575, alpha=0.0175
0.0017455863019523745
% TCTL (m^2) @ t=13, gamma=0.1575, alpha=0.0175
1.2419429518682237
% TCN (m^2) @ t=13, gamma=0.1575, alpha=0.0175
0.0019367659185077922
% TCTL (m^2) @ t=14, gamma=0.1575, alpha=0.0175
1.3058349492817805
% TCN (m^2) @ t=14, gamma=0.1575, alpha=0.0175
0.002146547986128894
% TCTL (m^2) @ t=15, gamma=0.1575, alpha=0.0175
1.37487183565353
% TCN (m^2) @ t=15, gamma=0.1575, alpha=0.0175
0.0023767655036661646
% TCTL (m^2) @ t=16, gamma=0.1575, alpha=0.0175
1.448936628765617
% TCN (m^2) @ t=16, gamma=0.1575, alpha=0.0175
0.0026286420683949946
% TCTL (m^2) @ t=17, gamma=0.1575, alpha=0.0175
1.528216956226407
% TCN (m^2) @ t=17, gamma=0.1575, alpha=0.0175
0.002903446040030183
% TCTL (m^2) @ t=18, gamma=0.1575, alpha=0.0175
1.612971842603008
% TCN (m^2) @ t=18, gamma=0.1575, alpha=0.0175
0.003202386347831992
% TCTL (m^2) @ t=19, gamma=0.1575, alpha=0.0175
1.7032254676178566
% TCN (m^2) @ t=19, gamma=0.1575, alpha=0.0175
0.003526867404679377
% TCTL (m^2) @ t=20, gamma=0.1575, alpha=0.0175
1.7993379678782992
% TCN (m^2) @ t=20, gamma=0.1575, alpha=0.0175
0.003876453762606342
% TCTL (m^2) @ t=21, gamma=0.1575, alpha=0.0175
1.9014863694655542