% Model:              MODEL_SC_3_0.15_II.mph
% Version:            COMSOL 5.6.0.401
% Date:               May 21 2022, 13:10
% Dimension:          0
% Nodes:              12462
% Expressions:        12462
% Description:        , 
% TCTL (m^2) @ t=0, gamma=0.135, alpha=0.015
0.8999890639789969
% TCN (m^2) @ t=0, gamma=0.135, alpha=0.015
4.6384110335159957E-4
% TCTL (m^2) @ t=1, gamma=0.135, alpha=0.015
0.8762381495396238
% TCN (m^2) @ t=1, gamma=0.135, alpha=0.015
5.052439804272555E-4
% TCTL (m^2) @ t=2, gamma=0.135, alpha=0.015
0.858286362293358
% TCN (m^2) @ t=2, gamma=0.135, alpha=0.015
5.511810731658639E-4
% TCTL (m^2) @ t=3, gamma=0.135, alpha=0.015
0.8447214139772665
% TCN (m^2) @ t=3, gamma=0.135, alpha=0.015
6.013115471384376E-4
% TCTL (m^2) @ t=4, gamma=0.135, alpha=0.015
0.8356000810545767
% TCN (m^2) @ t=4, gamma=0.135, alpha=0.015
6.565781006614185E-4
% TCTL (m^2) @ t=5, gamma=0.135, alpha=0.015
0.8308689569446153
% TCN (m^2) @ t=5, gamma=0.135, alpha=0.015
7.178485040399742E-4
% TCTL (m^2) @ t=6, gamma=0.135, alpha=0.015
0.8300919257015403
% TCN (m^2) @ t=6, gamma=0.135, alpha=0.015
7.857491085185712E-4
% TCTL (m^2) @ t=7, gamma=0.135, alpha=0.015
0.8331831062312094
% TCN (m^2) @ t=7, gamma=0.135, alpha=0.015
8.605695085391834E-4
% TCTL (m^2) @ t=8, gamma=0.135, alpha=0.015
0.8397843899335016
% TCN (m^2) @ t=8, gamma=0.135, alpha=0.015
9.432451411402086E-4
% TCTL (m^2) @ t=9, gamma=0.135, alpha=0.015
0.8496246173885807
% TCN (m^2) @ t=9, gamma=0.135, alpha=0.015
0.0010346631150335481
% TCTL (m^2) @ t=10, gamma=0.135, alpha=0.015
0.8625901796044867
% TCN (m^2) @ t=10, gamma=0.135, alpha=0.015
0.0011351799362533882
% TCTL (m^2) @ t=11, gamma=0.135, alpha=0.015
0.8783242951867576
% TCN (m^2) @ t=11, gamma=0.135, alpha=0.015
0.0012459483579788941
% TCTL (m^2) @ t=12, gamma=0.135, alpha=0.015
0.8967029519685084
% TCN (m^2) @ t=12, gamma=0.135, alpha=0.015
0.001367800830880052
% TCTL (m^2) @ t=13, gamma=0.135, alpha=0.015
0.9175700095528878
% TCN (m^2) @ t=13, gamma=0.135, alpha=0.015
0.0015018944401011488
% TCTL (m^2) @ t=14, gamma=0.135, alpha=0.015
0.9407388204478107
% TCN (m^2) @ t=14, gamma=0.135, alpha=0.015
0.001649190786238682
% TCTL (m^2) @ t=15, gamma=0.135, alpha=0.015
0.9660828378169957
% TCN (m^2) @ t=15, gamma=0.135, alpha=0.015
0.0018108313557181435
% TCTL (m^2) @ t=16, gamma=0.135, alpha=0.015
0.9934933203595792
% TCN (m^2) @ t=16, gamma=0.135, alpha=0.015
0.0019880005098012587
% TCTL (m^2) @ t=17, gamma=0.135, alpha=0.015
1.0227959010023424
% TCN (m^2) @ t=17, gamma=0.135, alpha=0.015
0.0021817245861813508
% TCTL (m^2) @ t=18, gamma=0.135, alpha=0.015
1.0539285050570306
% TCN (m^2) @ t=18, gamma=0.135, alpha=0.015
0.0023932431772244185
% TCTL (m^2) @ t=19, gamma=0.135, alpha=0.015
1.0869363820615061
% TCN (m^2) @ t=19, gamma=0.135, alpha=0.015
0.002623982959443262
% TCTL (m^2) @ t=20, gamma=0.135, alpha=0.015
1.1216457376069453
% TCN (m^2) @ t=20, gamma=0.135, alpha=0.015
0.0028749887789721847
% TCTL (m^2) @ t=21, gamma=0.135, alpha=0.015
1.1580144041746987
% TCN (m^2) @ t=21, gamma=0.135, alpha=0.015
0.0031474543059038344
% TCTL (m^2) @ t=22, gamma=0.135, alpha=0.015
1.1961766450587492
% TCN (m^2) @ t=22, gamma=0.135, alpha=0.015
0.0034425960590761754
% TCTL (m^2) @ t=23, gamma=0.135, alpha=0.015
1.2360042153746287
% TCN (m^2) @ t=23, gamma=0.135, alpha=0.015
0.003761596561096997
% TCTL (m^2) @ t=24, gamma=0.135, alpha=0.015
1.2774724107120186
% TCN (m^2) @ t=24, gamma=0.135, alpha=0.015
0.004105582346439648
% TCTL (m^2) @ t=25, gamma=0.135, alpha=0.015
1.3207103937359144
% TCN (m^2) @ t=25, gamma=0.135, alpha=0.015
0.004474859903438696
% TCTL (m^2) @ t=26, gamma=0.135, alpha=0.015
1.3656520369446836
% TCN (m^2) @ t=26, gamma=0.135, alpha=0.015
0.004870776534045079
% TCTL (m^2) @ t=27, gamma=0.135, alpha=0.015
1.4122953771810902
% TCN (m^2) @ t=27, gamma=0.135, alpha=0.015
0.005294337571515175
% TCTL (m^2) @ t=28, gamma=0.135, alpha=0.015
1.4608507893069076
% TCN (m^2) @ t=28, gamma=0.135, alpha=0.015
0.005744876357274753
% TCTL (m^2) @ t=29, gamma=0.135, alpha=0.015
1.5113518859150141
% TCN (m^2) @ t=29, gamma=0.135, alpha=0.015
0.0062231180940419874
% TCTL (m^2) @ t=30, gamma=0.135, alpha=0.015
1.5638975735493557
% TCN (m^2) @ t=30, gamma=0.135, alpha=0.015
0.006729273846966571
% TCTL (m^2) @ t=31, gamma=0.135, alpha=0.015
1.6184822682924132
% TCN (m^2) @ t=31, gamma=0.135, alpha=0.015
0.007263161720491045
% TCTL (m^2) @ t=32, gamma=0.135, alpha=0.015
1.675182378307766
% TCN (m^2) @ t=32, gamma=0.135, alpha=0.015
0.007824575280953091
% TCTL (m^2) @ t=33, gamma=0.135, alpha=0.015
1.7340920386720031
% TCN (m^2) @ t=33, gamma=0.135, alpha=0.015
0.008413173780649518
% TCTL (m^2) @ t=34, gamma=0.135, alpha=0.015
1.7951922440314407
% TCN (m^2) @ t=34, gamma=0.135, alpha=0.015
0.009027745843337102
% TCTL (m^2) @ t=35, gamma=0.135, alpha=0.015
1.8584739089701823
% TCN (m^2) @ t=35, gamma=0.135, alpha=0.015
0.009666961327664234
% TCTL (m^2) @ t=36, gamma=0.135, alpha=0.015
1.9239763529077538
% TCN (m^2) @ t=36, gamma=0.135, alpha=0.015
0.010329632745385236
% TCTL (m^2) @ t=37, gamma=0.135, alpha=0.015
1.9917636955172973
% TCN (m^2) @ t=37, gamma=0.135, alpha=0.015
0.01101375721525643
% TCTL (m^2) @ t=38, gamma=0.135, alpha=0.015
2.06193042630432
% TCN (m^2) @ t=38, gamma=0.135, alpha=0.015
0.011716842406693117
% TCTL (m^2) @ t=39, gamma=0.135, alpha=0.015
2.134494352977094
% TCN (m^2) @ t=39, gamma=0.135, alpha=0.015
0.012436559260671626
% TCTL (m^2) @ t=40, gamma=0.135, alpha=0.015
2.2096219610018295
% TCN (m^2) @ t=40, gamma=0.135, alpha=0.015
0.013168831686392598
% TCTL (m^2) @ t=41, gamma=0.135, alpha=0.015
2.287628494027085
% TCN (m^2) @ t=41, gamma=0.135, alpha=0.015
0.013908284424634602
% TCTL (m^2) @ t=42, gamma=0.135, alpha=0.015
2.3685255304807025
% TCN (m^2) @ t=42, gamma=0.135, alpha=0.015
0.014652949079412059
% TCTL (m^2) @ t=43, gamma=0.135, alpha=0.015
2.452477552536878
% TCN (m^2) @ t=43, gamma=0.135, alpha=0.015
0.015396314651432107
% TCTL (m^2) @ t=44, gamma=0.135, alpha=0.015
2.5396408723222033
% TCN (m^2) @ t=44, gamma=0.135, alpha=0.015
0.016126331655014668
% TCTL (m^2) @ t=45, gamma=0.135, alpha=0.015
2.629890272535736
% TCN (m^2) @ t=45, gamma=0.135, alpha=0.015
0.01685109828141665
% TCTL (m^2) @ t=46, gamma=0.135, alpha=0.015
2.723266425632419
% TCN (m^2) @ t=46, gamma=0.135, alpha=0.015
0.01756856254874765
% TCTL (m^2) @ t=47, gamma=0.135, alpha=0.015
2.8202413198449245
% TCN (m^2) @ t=47, gamma=0.135, alpha=0.015
0.018254911994576597
% TCTL (m^2) @ t=48, gamma=0.135, alpha=0.015
2.920557261786997
% TCN (m^2) @ t=48, gamma=0.135, alpha=0.015
0.01892314760844902
% TCTL (m^2) @ t=49, gamma=0.135, alpha=0.015
3.0242142514586554
% TCN (m^2) @ t=49, gamma=0.135, alpha=0.015
0.019573269390364814
% TCTL (m^2) @ t=50, gamma=0.135, alpha=0.015
3.1319293397348327
% TCN (m^2) @ t=50, gamma=0.135, alpha=0.015
0.02017239605536053
% TCTL (m^2) @ t=51, gamma=0.135, alpha=0.015
3.2433776201729803
% TCN (m^2) @ t=51, gamma=0.135, alpha=0.015
0.02073542660390763
% TCTL (m^2) @ t=52, gamma=0.135, alpha=0.015
3.358533430154437
% TCN (m^2) @ t=52, gamma=0.135, alpha=0.015
0.021263537828206548
% TCTL (m^2) @ t=53, gamma=0.135, alpha=0.015
3.478085379546837
% TCN (m^2) @ t=53, gamma=0.135, alpha=0.015
0.021731027600288798
% TCTL (m^2) @ t=54, gamma=0.135, alpha=0.015
3.601893902677224
% TCN (m^2) @ t=54, gamma=0.135, alpha=0.015
0.02214310516119901
% TCTL (m^2) @ t=55, gamma=0.135, alpha=0.015
3.7298392497989634
% TCN (m^2) @ t=55, gamma=0.135, alpha=0.015
0.022504240129304742
% TCTL (m^2) @ t=56, gamma=0.135, alpha=0.015
3.8625336099814334
% TCN (m^2) @ t=56, gamma=0.135, alpha=0.015
0.022796432780024464
% TCTL (m^2) @ t=57, gamma=0.135, alpha=0.015
4.000070870091706
% TCN (m^2) @ t=57, gamma=0.135, alpha=0.015
0.023016922629983297
% TCTL (m^2) @ t=58, gamma=0.135, alpha=0.015
4.142226180379914
% TCN (m^2) @ t=58, gamma=0.135, alpha=0.015
0.023172320763520632
% TCTL (m^2) @ t=59, gamma=0.135, alpha=0.015
4.289514990094968
% TCN (m^2) @ t=59, gamma=0.135, alpha=0.015
0.02325591990012927
% TCTL (m^2) @ t=60, gamma=0.135, alpha=0.015
4.44229889353573
% TCN (m^2) @ t=60, gamma=0.135, alpha=0.015
0.023263014795990453
% TCTL (m^2) @ t=61, gamma=0.135, alpha=0.015
4.600237292145092
% TCN (m^2) @ t=61, gamma=0.135, alpha=0.015
0.0231980374879494
% TCTL (m^2) @ t=62, gamma=0.135, alpha=0.015
4.763780869978069
% TCN (m^2) @ t=62, gamma=0.135, alpha=0.015
0.023056935445621513
% TCTL (m^2) @ t=63, gamma=0.135, alpha=0.015
4.9336772463010705
% TCN (m^2) @ t=63, gamma=0.135, alpha=0.015
0.02283298611079907
% TCTL (m^2) @ t=64, gamma=0.135, alpha=0.015
5.109400577964198
% TCN (m^2) @ t=64, gamma=0.135, alpha=0.015
0.02253091784100625
% TCTL (m^2) @ t=65, gamma=0.135, alpha=0.015
5.29120249003961
% TCN (m^2) @ t=65, gamma=0.135, alpha=0.015
0.02215372778896768
% TCTL (m^2) @ t=66, gamma=0.135, alpha=0.015
5.480031361775765
% TCN (m^2) @ t=66, gamma=0.135, alpha=0.015
0.02171271227513496
% TCTL (m^2) @ t=67, gamma=0.135, alpha=0.015
5.6753159910507325
% TCN (m^2) @ t=67, gamma=0.135, alpha=0.015
0.021201067605498374
% TCTL (m^2) @ t=68, gamma=0.135, alpha=0.015
5.879190441503736
% TCN (m^2) @ t=68, gamma=0.135, alpha=0.015
0.02060300899929515
% TCTL (m^2) @ t=69, gamma=0.135, alpha=0.015
6.10676787199001
% TCN (m^2) @ t=69, gamma=0.135, alpha=0.015
0.01981925558756923
% TCTL (m^2) @ t=70, gamma=0.135, alpha=0.015
6.3343453024763035
% TCN (m^2) @ t=70, gamma=0.135, alpha=0.015
0.019035502175843183
% TCTL (m^2) @ t=71, gamma=0.135, alpha=0.015
6.561922732962584
% TCN (m^2) @ t=71, gamma=0.135, alpha=0.015
0.01825174876411731
% TCTL (m^2) @ t=72, gamma=0.135, alpha=0.015
6.813589147001794
% TCN (m^2) @ t=72, gamma=0.135, alpha=0.015
0.017371820982435202
% TCTL (m^2) @ t=73, gamma=0.135, alpha=0.015
7.066535625105018
% TCN (m^2) @ t=73, gamma=0.135, alpha=0.015
0.016486782592636823
% TCTL (m^2) @ t=74, gamma=0.135, alpha=0.015
7.323565758751002
% TCN (m^2) @ t=74, gamma=0.135, alpha=0.015
0.015594928603336212
% TCTL (m^2) @ t=75, gamma=0.135, alpha=0.015
7.5994951772747275
% TCN (m^2) @ t=75, gamma=0.135, alpha=0.015
0.014671531807533778
% TCTL (m^2) @ t=76, gamma=0.135, alpha=0.015
7.875424595798432
% TCN (m^2) @ t=76, gamma=0.135, alpha=0.015
0.013748135011731236
% TCTL (m^2) @ t=77, gamma=0.135, alpha=0.015
8.162626292273004
% TCN (m^2) @ t=77, gamma=0.135, alpha=0.015
0.012830597094802536
% TCTL (m^2) @ t=78, gamma=0.135, alpha=0.015
8.466332135536081
% TCN (m^2) @ t=78, gamma=0.135, alpha=0.015
0.011921637372748803
% TCTL (m^2) @ t=79, gamma=0.135, alpha=0.015
8.770037978799134
% TCN (m^2) @ t=79, gamma=0.135, alpha=0.015
0.011012677650695097
% TCTL (m^2) @ t=80, gamma=0.135, alpha=0.015
9.082812534022281
% TCN (m^2) @ t=80, gamma=0.135, alpha=0.015
0.010125548293624196
% TCTL (m^2) @ t=81, gamma=0.135, alpha=0.015
9.40768602785127
% TCN (m^2) @ t=81, gamma=0.135, alpha=0.015
0.00926754371709898
% TCTL (m^2) @ t=82, gamma=0.135, alpha=0.015
9.740959744210134
% TCN (m^2) @ t=82, gamma=0.135, alpha=0.015
0.00842976030589156
% TCTL (m^2) @ t=83, gamma=0.135, alpha=0.015
10.085431214991477
% TCN (m^2) @ t=83, gamma=0.135, alpha=0.015
0.007635927380023421
% TCTL (m^2) @ t=84, gamma=0.135, alpha=0.015
10.44041319078402
% TCN (m^2) @ t=84, gamma=0.135, alpha=0.015
0.0068802155292000886
% TCTL (m^2) @ t=85, gamma=0.135, alpha=0.015
10.805588221806023
% TCN (m^2) @ t=85, gamma=0.135, alpha=0.015
0.006160810150755028
% TCTL (m^2) @ t=86, gamma=0.135, alpha=0.015
11.181048022226213
% TCN (m^2) @ t=86, gamma=0.135, alpha=0.015
0.005490169954610404
% TCTL (m^2) @ t=87, gamma=0.135, alpha=0.015
11.566747371043524
% TCN (m^2) @ t=87, gamma=0.135, alpha=0.015
0.004862151993143524
% TCTL (m^2) @ t=88, gamma=0.135, alpha=0.015
11.961433044690768
% TCN (m^2) @ t=88, gamma=0.135, alpha=0.015
0.004278338578134441
% TCTL (m^2) @ t=89, gamma=0.135, alpha=0.015
12.361995940920444
% TCN (m^2) @ t=89, gamma=0.135, alpha=0.015
0.0037426552414994057
% TCTL (m^2) @ t=90, gamma=0.135, alpha=0.015
12.77025085495352
% TCN (m^2) @ t=90, gamma=0.135, alpha=0.015
0.003252810634805951
% TCTL (m^2) @ t=91, gamma=0.135, alpha=0.015
13.178006329603003
% TCN (m^2) @ t=91, gamma=0.135, alpha=0.015
0.002807388194939151
% TCTL (m^2) @ t=92, gamma=0.135, alpha=0.015
13.579671612474247
% TCN (m^2) @ t=92, gamma=0.135, alpha=0.015
0.0024054211032431467
% TCTL (m^2) @ t=93, gamma=0.135, alpha=0.015
13.97999536210741
% TCN (m^2) @ t=93, gamma=0.135, alpha=0.015
0.0020477305536007514
% TCTL (m^2) @ t=94, gamma=0.135, alpha=0.015
14.34290461977317
% TCN (m^2) @ t=94, gamma=0.135, alpha=0.015
0.0017286701228796577
% TCTL (m^2) @ t=95, gamma=0.135, alpha=0.015
14.67067766804102
% TCN (m^2) @ t=95, gamma=0.135, alpha=0.015
0.001448596425781168
% TCTL (m^2) @ t=96, gamma=0.135, alpha=0.015
14.97071544706218
% TCN (m^2) @ t=96, gamma=0.135, alpha=0.015
0.0012086709791673527
% TCTL (m^2) @ t=97, gamma=0.135, alpha=0.015
15.166626295401716
% TCN (m^2) @ t=97, gamma=0.135, alpha=0.015
9.986889000148018E-4
% TCTL (m^2) @ t=98, gamma=0.135, alpha=0.015
15.264750474197214
% TCN (m^2) @ t=98, gamma=0.135, alpha=0.015
8.194971606504866E-4
% TCTL (m^2) @ t=99, gamma=0.135, alpha=0.015
15.240276534667302
% TCN (m^2) @ t=99, gamma=0.135, alpha=0.015
6.691322111664246E-4
% TCTL (m^2) @ t=100, gamma=0.135, alpha=0.015
15.041435414110712
% TCN (m^2) @ t=100, gamma=0.135, alpha=0.015
5.478863817260766E-4
% TCTL (m^2) @ t=101, gamma=0.135, alpha=0.015
14.651736169106456
% TCN (m^2) @ t=101, gamma=0.135, alpha=0.015
4.530998418722064E-4
% TCTL (m^2) @ t=102, gamma=0.135, alpha=0.015
14.095787345849836
% TCN (m^2) @ t=102, gamma=0.135, alpha=0.015
3.782829005673111E-4
% TCTL (m^2) @ t=103, gamma=0.135, alpha=0.015
13.443116905089312
% TCN (m^2) @ t=103, gamma=0.135, alpha=0.015
3.1285285473384676E-4
% TCTL (m^2) @ t=104, gamma=0.135, alpha=0.015
12.665595744531075
% TCN (m^2) @ t=104, gamma=0.135, alpha=0.015
2.551254150159001E-4
% TCTL (m^2) @ t=105, gamma=0.135, alpha=0.015
11.812740826561393
% TCN (m^2) @ t=105, gamma=0.135, alpha=0.015
2.0673232006111208E-4
% TCTL (m^2) @ t=106, gamma=0.135, alpha=0.015
10.920316695726523
% TCN (m^2) @ t=106, gamma=0.135, alpha=0.015
1.671588831349959E-4
% TCTL (m^2) @ t=107, gamma=0.135, alpha=0.015
10.007977118613425
% TCN (m^2) @ t=107, gamma=0.135, alpha=0.015
1.3348375951635253E-4
% TCTL (m^2) @ t=108, gamma=0.135, alpha=0.015
9.122749207020004
% TCN (m^2) @ t=108, gamma=0.135, alpha=0.015
1.0732012272388826E-4
% TCTL (m^2) @ t=109, gamma=0.135, alpha=0.015
8.29048958917114
% TCN (m^2) @ t=109, gamma=0.135, alpha=0.015
8.662904092536616E-5
% TCTL (m^2) @ t=110, gamma=0.135, alpha=0.015
7.501911516350993
% TCN (m^2) @ t=110, gamma=0.135, alpha=0.015
7.059638391522367E-5
% TCTL (m^2) @ t=111, gamma=0.135, alpha=0.015
6.786361356437859
% TCN (m^2) @ t=111, gamma=0.135, alpha=0.015
5.8328433746328054E-5
% TCTL (m^2) @ t=112, gamma=0.135, alpha=0.015
6.1388364491439615
% TCN (m^2) @ t=112, gamma=0.135, alpha=0.015
4.906659560517071E-5
% TCTL (m^2) @ t=113, gamma=0.135, alpha=0.015
5.552434374290801
% TCN (m^2) @ t=113, gamma=0.135, alpha=0.015
4.2060439058094434E-5
% TCTL (m^2) @ t=114, gamma=0.135, alpha=0.015
5.0270632048524035
% TCN (m^2) @ t=114, gamma=0.135, alpha=0.015
3.667511030241792E-5
% TCTL (m^2) @ t=115, gamma=0.135, alpha=0.015
4.54515977878342
% TCN (m^2) @ t=115, gamma=0.135, alpha=0.015
3.2477999192169746E-5
% TCTL (m^2) @ t=116, gamma=0.135, alpha=0.015
4.108124774705555
% TCN (m^2) @ t=116, gamma=0.135, alpha=0.015
2.9062687995735456E-5
% TCTL (m^2) @ t=117, gamma=0.135, alpha=0.015
3.7151587863208313
% TCN (m^2) @ t=117, gamma=0.135, alpha=0.015
2.6691193075637298E-5
% TCTL (m^2) @ t=118, gamma=0.135, alpha=0.015
3.361310750379279
% TCN (m^2) @ t=118, gamma=0.135, alpha=0.015
2.4963355828957097E-5
% TCTL (m^2) @ t=119, gamma=0.135, alpha=0.015
3.042773485752959
% TCN (m^2) @ t=119, gamma=0.135, alpha=0.015
2.3866937132862835E-5
% TCTL (m^2) @ t=120, gamma=0.135, alpha=0.015
2.7558273400006428
% TCN (m^2) @ t=120, gamma=0.135, alpha=0.015
2.321796793873763E-5
% TCTL (m^2) @ t=121, gamma=0.135, alpha=0.015
2.4966191147848775
% TCN (m^2) @ t=121, gamma=0.135, alpha=0.015
2.298689709404253E-5
% TCTL (m^2) @ t=122, gamma=0.135, alpha=0.015
2.2613279863563585
% TCN (m^2) @ t=122, gamma=0.135, alpha=0.015
2.305173602331202E-5
% TCTL (m^2) @ t=123, gamma=0.135, alpha=0.015
2.046907423526149
% TCN (m^2) @ t=123, gamma=0.135, alpha=0.015
2.3470178740398137E-5
% TCTL (m^2) @ t=124, gamma=0.135, alpha=0.015
1.8523105522360508
% TCN (m^2) @ t=124, gamma=0.135, alpha=0.015
2.422736149156031E-5
% TCTL (m^2) @ t=125, gamma=0.135, alpha=0.015
1.6755734926688988
% TCN (m^2) @ t=125, gamma=0.135, alpha=0.015
2.533325259099127E-5
% TCTL (m^2) @ t=126, gamma=0.135, alpha=0.015
1.5156005967393607
% TCN (m^2) @ t=126, gamma=0.135, alpha=0.015
2.681725036467687E-5
% TCTL (m^2) @ t=127, gamma=0.135, alpha=0.015
1.370689818106516
% TCN (m^2) @ t=127, gamma=0.135, alpha=0.015
2.87165630582552E-5
% TCTL (m^2) @ t=128, gamma=0.135, alpha=0.015
1.2401581670610913
% TCN (m^2) @ t=128, gamma=0.135, alpha=0.015
3.1053912450045624E-5
% TCTL (m^2) @ t=129, gamma=0.135, alpha=0.015
1.1225467764782109
% TCN (m^2) @ t=129, gamma=0.135, alpha=0.015
3.388872238809381E-5
% TCTL (m^2) @ t=130, gamma=0.135, alpha=0.015
1.0165142359229535
% TCN (m^2) @ t=130, gamma=0.135, alpha=0.015
3.7323906157781564E-5
% TCTL (m^2) @ t=131, gamma=0.135, alpha=0.015
0.9207587950540117
% TCN (m^2) @ t=131, gamma=0.135, alpha=0.015
4.143740977143674E-5
% TCTL (m^2) @ t=132, gamma=0.135, alpha=0.015
0.8341517016405547
% TCN (m^2) @ t=132, gamma=0.135, alpha=0.015
4.6327175442875944E-5
% TCTL (m^2) @ t=133, gamma=0.135, alpha=0.015
0.7562605215020287
% TCN (m^2) @ t=133, gamma=0.135, alpha=0.015
5.2135433822361716E-5
% TCTL (m^2) @ t=134, gamma=0.135, alpha=0.015
0.6857864379748491
% TCN (m^2) @ t=134, gamma=0.135, alpha=0.015
5.894931038871569E-5
% TCTL (m^2) @ t=135, gamma=0.135, alpha=0.015
0.6221430547378748
% TCN (m^2) @ t=135, gamma=0.135, alpha=0.015
6.696043382065035E-5
% TCTL (m^2) @ t=136, gamma=0.135, alpha=0.015
0.5649958551561057
% TCN (m^2) @ t=136, gamma=0.135, alpha=0.015
7.641082862631858E-5
% TCTL (m^2) @ t=137, gamma=0.135, alpha=0.015
0.5133306039716782
% TCN (m^2) @ t=137, gamma=0.135, alpha=0.015
8.740652190848314E-5
% TCTL (m^2) @ t=138, gamma=0.135, alpha=0.015
0.4670022523765136
% TCN (m^2) @ t=138, gamma=0.135, alpha=0.015
1.0034720539857886E-4
% TCTL (m^2) @ t=139, gamma=0.135, alpha=0.015
0.42562817195109465
% TCN (m^2) @ t=139, gamma=0.135, alpha=0.015
1.1553860083816404E-4
% TCTL (m^2) @ t=140, gamma=0.135, alpha=0.015
0.388532820984119
% TCN (m^2) @ t=140, gamma=0.135, alpha=0.015
1.331705738189508E-4
% TCTL (m^2) @ t=141, gamma=0.135, alpha=0.015
0.35583403339565167
% TCN (m^2) @ t=141, gamma=0.135, alpha=0.015
1.5400633402444974E-4
% TCTL (m^2) @ t=142, gamma=0.135, alpha=0.015
0.32706152762269025
% TCN (m^2) @ t=142, gamma=0.135, alpha=0.015
1.7833707226587583E-4
% TCTL (m^2) @ t=143, gamma=0.135, alpha=0.015
0.3018611166453109
% TCN (m^2) @ t=143, gamma=0.135, alpha=0.015
2.0658024342165376E-4
% TCTL (m^2) @ t=144, gamma=0.135, alpha=0.015
0.28030721874938846
% TCN (m^2) @ t=144, gamma=0.135, alpha=0.015
2.399274139112864E-4
% TCTL (m^2) @ t=145, gamma=0.135, alpha=0.015
0.26215741336058584
% TCN (m^2) @ t=145, gamma=0.135, alpha=0.015
2.789657832946772E-4
% TCTL (m^2) @ t=146, gamma=0.135, alpha=0.015
0.24726566170534617
% TCN (m^2) @ t=146, gamma=0.135, alpha=0.015
3.24599936311356E-4
% TCTL (m^2) @ t=147, gamma=0.135, alpha=0.015
0.23535634074614298
% TCN (m^2) @ t=147, gamma=0.135, alpha=0.015
3.778959582492308E-4
% TCTL (m^2) @ t=148, gamma=0.135, alpha=0.015
0.22635560277991862
% TCN (m^2) @ t=148, gamma=0.135, alpha=0.015
4.3993338376677887E-4
% TCTL (m^2) @ t=149, gamma=0.135, alpha=0.015
0.22003265762569407
% TCN (m^2) @ t=149, gamma=0.135, alpha=0.015
5.120604268009323E-4
% TCTL (m^2) @ t=150, gamma=0.135, alpha=0.015
0.21607482270052597
% TCN (m^2) @ t=150, gamma=0.135, alpha=0.015
5.958476087714957E-4
% TCTL (m^2) @ t=151, gamma=0.135, alpha=0.015
0.2143044145559653
% TCN (m^2) @ t=151, gamma=0.135, alpha=0.015
6.928119614416047E-4
% TCTL (m^2) @ t=152, gamma=0.135, alpha=0.015
0.2144323680785146
% TCN (m^2) @ t=152, gamma=0.135, alpha=0.015
8.050368769316294E-4
% TCTL (m^2) @ t=153, gamma=0.135, alpha=0.015
0.21616359273894659
% TCN (m^2) @ t=153, gamma=0.135, alpha=0.015
9.346980561883618E-4
% TCTL (m^2) @ t=154, gamma=0.135, alpha=0.015
0.2192018699455703
% TCN (m^2) @ t=154, gamma=0.135, alpha=0.015
0.0010840253736093017
% TCTL (m^2) @ t=155, gamma=0.135, alpha=0.015
0.22341591509954872
% TCN (m^2) @ t=155, gamma=0.135, alpha=0.015
0.0012560903491056533
% TCTL (m^2) @ t=156, gamma=0.135, alpha=0.015
0.22852773283807143
% TCN (m^2) @ t=156, gamma=0.135, alpha=0.015
0.0014537704735881163
% TCTL (m^2) @ t=157, gamma=0.135, alpha=0.015
0.23431694785998372
% TCN (m^2) @ t=157, gamma=0.135, alpha=0.015
0.0016803426071248157
% TCTL (m^2) @ t=158, gamma=0.135, alpha=0.015
0.24082057447250438
% TCN (m^2) @ t=158, gamma=0.135, alpha=0.015
0.0019399010395023354
% TCTL (m^2) @ t=159, gamma=0.135, alpha=0.015
0.2478737080811095
% TCN (m^2) @ t=159, gamma=0.135, alpha=0.015
0.0022363487598877825
% TCTL (m^2) @ t=160, gamma=0.135, alpha=0.015
0.2554230617339135
% TCN (m^2) @ t=160, gamma=0.135, alpha=0.015
0.0025742169244345877
% TCTL (m^2) @ t=161, gamma=0.135, alpha=0.015
0.26347320533209606
% TCN (m^2) @ t=161, gamma=0.135, alpha=0.015
0.0029588301491213715
% TCTL (m^2) @ t=162, gamma=0.135, alpha=0.015
0.27204768850470396
% TCN (m^2) @ t=162, gamma=0.135, alpha=0.015
0.0033955962007750657
% TCTL (m^2) @ t=163, gamma=0.135, alpha=0.015
0.2811173280829571
% TCN (m^2) @ t=163, gamma=0.135, alpha=0.015
0.0038905759146097355
% TCTL (m^2) @ t=164, gamma=0.135, alpha=0.015
0.2906234134377908
% TCN (m^2) @ t=164, gamma=0.135, alpha=0.015
0.004450267665262226
% TCTL (m^2) @ t=165, gamma=0.135, alpha=0.015
0.3006329890771817
% TCN (m^2) @ t=165, gamma=0.135, alpha=0.015
0.005081602639237871
% TCTL (m^2) @ t=166, gamma=0.135, alpha=0.015
0.3111282003848591
% TCN (m^2) @ t=166, gamma=0.135, alpha=0.015
0.0057923778691151406
% TCTL (m^2) @ t=167, gamma=0.135, alpha=0.015
0.3221203571099
% TCN (m^2) @ t=167, gamma=0.135, alpha=0.015
0.006590770035436762
% TCTL (m^2) @ t=168, gamma=0.135, alpha=0.015
0.3336440846012571
% TCN (m^2) @ t=168, gamma=0.135, alpha=0.015
0.0074853730015009
% TCTL (m^2) @ t=169, gamma=0.135, alpha=0.015
0.34564952972488505
% TCN (m^2) @ t=169, gamma=0.135, alpha=0.015
0.00848608801423643
% TCTL (m^2) @ t=170, gamma=0.135, alpha=0.015
0.35815369671935177
% TCN (m^2) @ t=170, gamma=0.135, alpha=0.015
0.009602808745018121
% TCTL (m^2) @ t=171, gamma=0.135, alpha=0.015
0.3711513137654324
% TCN (m^2) @ t=171, gamma=0.135, alpha=0.015
0.010846238821462614
% TCTL (m^2) @ t=172, gamma=0.135, alpha=0.015
0.3846119453155421
% TCN (m^2) @ t=172, gamma=0.135, alpha=0.015
0.01222810199920704
% TCTL (m^2) @ t=173, gamma=0.135, alpha=0.015
0.39852219618272133
% TCN (m^2) @ t=173, gamma=0.135, alpha=0.015
0.013760375864511861
% TCTL (m^2) @ t=174, gamma=0.135, alpha=0.015
0.4128871457529031
% TCN (m^2) @ t=174, gamma=0.135, alpha=0.015
0.015455698009845876
% TCTL (m^2) @ t=175, gamma=0.135, alpha=0.015
0.42776936879653027
% TCN (m^2) @ t=175, gamma=0.135, alpha=0.015
0.017327122855745884
% TCTL (m^2) @ t=176, gamma=0.135, alpha=0.015
0.44316757561145004
% TCN (m^2) @ t=176, gamma=0.135, alpha=0.015
0.019388576568216964
% TCTL (m^2) @ t=177, gamma=0.135, alpha=0.015
0.4591103711478059
% TCN (m^2) @ t=177, gamma=0.135, alpha=0.015
0.021654505602671077
% TCTL (m^2) @ t=178, gamma=0.135, alpha=0.015
0.4756328446238517
% TCN (m^2) @ t=178, gamma=0.135, alpha=0.015
0.02413996445774823
% TCTL (m^2) @ t=179, gamma=0.135, alpha=0.015
0.49277656952594084
% TCN (m^2) @ t=179, gamma=0.135, alpha=0.015
0.026860615675316002
% TCTL (m^2) @ t=180, gamma=0.135, alpha=0.015
0.5104732972357622
% TCN (m^2) @ t=180, gamma=0.135, alpha=0.015
0.029838204885473306
% TCTL (m^2) @ t=181, gamma=0.135, alpha=0.015
0.5287548661709678
% TCN (m^2) @ t=181, gamma=0.135, alpha=0.015
0.03308551781152304
% TCTL (m^2) @ t=182, gamma=0.135, alpha=0.015
0.5476568339051193
% TCN (m^2) @ t=182, gamma=0.135, alpha=0.015
0.03661671362351574
% TCTL (m^2) @ t=183, gamma=0.135, alpha=0.015
0.5671956227253221
% TCN (m^2) @ t=183, gamma=0.135, alpha=0.015
0.04044718335071897
% TCTL (m^2) @ t=184, gamma=0.135, alpha=0.015
0.5873876549186846
% TCN (m^2) @ t=184, gamma=0.135, alpha=0.015
0.04459231802240053
% TCTL (m^2) @ t=185, gamma=0.135, alpha=0.015
0.60826475378442
% TCN (m^2) @ t=185, gamma=0.135, alpha=0.015
0.04906673595482786
% TCTL (m^2) @ t=186, gamma=0.135, alpha=0.015
0.6299076772682844
% TCN (m^2) @ t=186, gamma=0.135, alpha=0.015
0.05388260027253661
% TCTL (m^2) @ t=187, gamma=0.135, alpha=0.015
0.6522971318444921
% TCN (m^2) @ t=187, gamma=0.135, alpha=0.015
0.05905709396968428
% TCTL (m^2) @ t=188, gamma=0.135, alpha=0.015
0.6754560108761973
% TCN (m^2) @ t=188, gamma=0.135, alpha=0.015
0.06460528340307195
% TCTL (m^2) @ t=189, gamma=0.135, alpha=0.015
0.6994072077265594
% TCN (m^2) @ t=189, gamma=0.135, alpha=0.015
0.07054223492950051
% TCTL (m^2) @ t=190, gamma=0.135, alpha=0.015
0.7241736157587315
% TCN (m^2) @ t=190, gamma=0.135, alpha=0.015
0.07688301490577129
% TCTL (m^2) @ t=191, gamma=0.135, alpha=0.015
0.7498170930269559
% TCN (m^2) @ t=191, gamma=0.135, alpha=0.015
0.08361755799029598
% TCTL (m^2) @ t=192, gamma=0.135, alpha=0.015
0.7763706567262687
% TCN (m^2) @ t=192, gamma=0.135, alpha=0.015
0.09075440080533098
% TCTL (m^2) @ t=193, gamma=0.135, alpha=0.015
0.8038446441492175
% TCN (m^2) @ t=193, gamma=0.135, alpha=0.015
0.09831670820328446
% TCTL (m^2) @ t=194, gamma=0.135, alpha=0.015
0.832267011311243
% TCN (m^2) @ t=194, gamma=0.135, alpha=0.015
0.10631628119875149
% TCTL (m^2) @ t=195, gamma=0.135, alpha=0.015
0.861665714227789
% TCN (m^2) @ t=195, gamma=0.135, alpha=0.015
0.11476492080632711
% TCTL (m^2) @ t=196, gamma=0.135, alpha=0.015
0.8920706487705985
% TCN (m^2) @ t=196, gamma=0.135, alpha=0.015
0.12367039733387597
% TCTL (m^2) @ t=197, gamma=0.135, alpha=0.015
0.9235645893338026
% TCN (m^2) @ t=197, gamma=0.135, alpha=0.015
0.1329306080968367
% TCTL (m^2) @ t=198, gamma=0.135, alpha=0.015
0.9561472943513858
% TCN (m^2) @ t=198, gamma=0.135, alpha=0.015
0.14261594411032164
% TCTL (m^2) @ t=199, gamma=0.135, alpha=0.015
0.9898510280007032
% TCN (m^2) @ t=199, gamma=0.135, alpha=0.015
0.15272925472726434
% TCTL (m^2) @ t=200, gamma=0.135, alpha=0.015
1.0247080544591214
% TCN (m^2) @ t=200, gamma=0.135, alpha=0.015
0.16327338930059654
% TCTL (m^2) @ t=0, gamma=0.135, alpha=0.0175
0.8999890642144935
% TCN (m^2) @ t=0, gamma=0.135, alpha=0.0175
4.6384710350477493E-4
% TCTL (m^2) @ t=1, gamma=0.135, alpha=0.0175
0.8774170189356778
% TCN (m^2) @ t=1, gamma=0.135, alpha=0.0175
5.221610794681492E-4
% TCTL (m^2) @ t=2, gamma=0.135, alpha=0.0175
0.8624803960169196
% TCN (m^2) @ t=2, gamma=0.135, alpha=0.0175
5.884986929455116E-4
% TCTL (m^2) @ t=3, gamma=0.135, alpha=0.0175
0.8531536071997382
% TCN (m^2) @ t=3, gamma=0.135, alpha=0.0175
6.622061097340897E-4
% TCTL (m^2) @ t=4, gamma=0.135, alpha=0.0175
0.8493238137592998
% TCN (m^2) @ t=4, gamma=0.135, alpha=0.0175
7.449555033225738E-4
% TCTL (m^2) @ t=5, gamma=0.135, alpha=0.0175
0.850735003284389
% TCN (m^2) @ t=5, gamma=0.135, alpha=0.0175
8.383301653584719E-4
% TCTL (m^2) @ t=6, gamma=0.135, alpha=0.0175
0.8566775501393463
% TCN (m^2) @ t=6, gamma=0.135, alpha=0.0175
9.43595306261826E-4
% TCTL (m^2) @ t=7, gamma=0.135, alpha=0.0175
0.8670042328429775
% TCN (m^2) @ t=7, gamma=0.135, alpha=0.0175
0.0010613440726272459
% TCTL (m^2) @ t=8, gamma=0.135, alpha=0.0175
0.8811082268123349
% TCN (m^2) @ t=8, gamma=0.135, alpha=0.0175
0.0011934782794246336
% TCTL (m^2) @ t=9, gamma=0.135, alpha=0.0175
0.8985805815658636
% TCN (m^2) @ t=9, gamma=0.135, alpha=0.0175
0.0013418957533113847
% TCTL (m^2) @ t=10, gamma=0.135, alpha=0.0175
0.9192482192951209
% TCN (m^2) @ t=10, gamma=0.135, alpha=0.0175
0.0015073563600369257
% TCTL (m^2) @ t=11, gamma=0.135, alpha=0.0175
0.9425850723594611
% TCN (m^2) @ t=11, gamma=0.135, alpha=0.0175
0.0016923465963041703
% TCTL (m^2) @ t=12, gamma=0.135, alpha=0.0175
0.9684652135616256
% TCN (m^2) @ t=12, gamma=0.135, alpha=0.0175
0.0018987728941045282
% TCTL (m^2) @ t=13, gamma=0.135, alpha=0.0175
0.996744628004014
% TCN (m^2) @ t=13, gamma=0.135, alpha=0.0175
0.0021292984771606556
% TCTL (m^2) @ t=14, gamma=0.135, alpha=0.0175
1.0271946771614908
% TCN (m^2) @ t=14, gamma=0.135, alpha=0.0175
0.002386088429499222
% TCTL (m^2) @ t=15, gamma=0.135, alpha=0.0175
1.0596819760124474
% TCN (m^2) @ t=15, gamma=0.135, alpha=0.0175
0.0026717792228911088
% TCTL (m^2) @ t=16, gamma=0.135, alpha=0.0175
1.0940976575476524
% TCN (m^2) @ t=16, gamma=0.135, alpha=0.0175
0.002989120749409507
% TCTL (m^2) @ t=17, gamma=0.135, alpha=0.0175
1.1302423013533154
% TCN (m^2) @ t=17, gamma=0.135, alpha=0.0175
0.003340444001162776
% TCTL (m^2) @ t=18, gamma=0.135, alpha=0.0175
1.168081515422774
% TCN (m^2) @ t=18, gamma=0.135, alpha=0.0175
0.0037286892076115424
% TCTL (m^2) @ t=19, gamma=0.135, alpha=0.0175
1.20774128942232
% TCN (m^2) @ t=19, gamma=0.135, alpha=0.0175
0.004157346350082871
% TCTL (m^2) @ t=20, gamma=0.135, alpha=0.0175
1.2490200378812415
% TCN (m^2) @ t=20, gamma=0.135, alpha=0.0175
0.004628782556901635
% TCTL (m^2) @ t=21, gamma=0.135, alpha=0.0175
1.2919017780699658
% TCN (m^2) @ t=21, gamma=0.135, alpha=0.0175
0.005145884768961083
% TCTL (m^2) @ t=22, gamma=0.135, alpha=0.0175
1.3365941962556471
% TCN (m^2) @ t=22, gamma=0.135, alpha=0.0175
0.005711896382152281
% TCTL (m^2) @ t=23, gamma=0.135, alpha=0.0175
1.3829720601139244
% TCN (m^2) @ t=23, gamma=0.135, alpha=0.0175
0.0063295302293577506
% TCTL (m^2) @ t=24, gamma=0.135, alpha=0.0175
1.431035294339648
% TCN (m^2) @ t=24, gamma=0.135, alpha=0.0175