% Model:              MODEL_SC_3_0.15_II.mph
% Version:            COMSOL 5.6.0.401
% Date:               May 21 2022, 13:19
% Dimension:          0
% Nodes:              12462
% Expressions:        12462
% Description:        , 
% TCTL (m^2) @ t=0, gamma=0.18, alpha=0.015
0.8999974191297675
% TCN (m^2) @ t=0, gamma=0.18, alpha=0.015
4.6384110315521993E-4
% TCTL (m^2) @ t=1, gamma=0.18, alpha=0.015
0.8975995491088198
% TCN (m^2) @ t=1, gamma=0.18, alpha=0.015
5.041151971138823E-4
% TCTL (m^2) @ t=2, gamma=0.18, alpha=0.015
0.9016356886351482
% TCN (m^2) @ t=2, gamma=0.18, alpha=0.015
5.467483963554988E-4
% TCTL (m^2) @ t=3, gamma=0.18, alpha=0.015
0.9114438333592443
% TCN (m^2) @ t=3, gamma=0.18, alpha=0.015
5.918628032562101E-4
% TCTL (m^2) @ t=4, gamma=0.18, alpha=0.015
0.9274579299261942
% TCN (m^2) @ t=4, gamma=0.18, alpha=0.015
6.400180519300537E-4
% TCTL (m^2) @ t=5, gamma=0.18, alpha=0.015
0.9495905259124815
% TCN (m^2) @ t=5, gamma=0.18, alpha=0.015
6.914500350228608E-4
% TCTL (m^2) @ t=6, gamma=0.18, alpha=0.015
0.9779207991917306
% TCN (m^2) @ t=6, gamma=0.18, alpha=0.015
7.465695239753619E-4
% TCTL (m^2) @ t=7, gamma=0.18, alpha=0.015
1.0125549630916155
% TCN (m^2) @ t=7, gamma=0.18, alpha=0.015
8.057223195242965E-4
% TCTL (m^2) @ t=8, gamma=0.18, alpha=0.015
1.053605274260563
% TCN (m^2) @ t=8, gamma=0.18, alpha=0.015
8.692225753599113E-4
% TCTL (m^2) @ t=9, gamma=0.18, alpha=0.015
1.101296390641319
% TCN (m^2) @ t=9, gamma=0.18, alpha=0.015
9.375109853894482E-4
% TCTL (m^2) @ t=10, gamma=0.18, alpha=0.015
1.1559661760551296
% TCN (m^2) @ t=10, gamma=0.18, alpha=0.015
0.0010110021943591186
% TCTL (m^2) @ t=11, gamma=0.18, alpha=0.015
1.2178966466277574
% TCN (m^2) @ t=11, gamma=0.18, alpha=0.015
0.0010901014887468889
% TCTL (m^2) @ t=12, gamma=0.18, alpha=0.015
1.2874819530882924
% TCN (m^2) @ t=12, gamma=0.18, alpha=0.015
0.0011751843854418524
% TCTL (m^2) @ t=13, gamma=0.18, alpha=0.015
1.3650300998498803
% TCN (m^2) @ t=13, gamma=0.18, alpha=0.015
0.0012666605395152226
% TCTL (m^2) @ t=14, gamma=0.18, alpha=0.015
1.4510947257916613
% TCN (m^2) @ t=14, gamma=0.18, alpha=0.015
0.0013648157948816949
% TCTL (m^2) @ t=15, gamma=0.18, alpha=0.015
1.5461320215615344
% TCN (m^2) @ t=15, gamma=0.18, alpha=0.015
0.0014699862616179222
% TCTL (m^2) @ t=16, gamma=0.18, alpha=0.015
1.650673504685082
% TCN (m^2) @ t=16, gamma=0.18, alpha=0.015
0.0015823200960057224
% TCTL (m^2) @ t=17, gamma=0.18, alpha=0.015
1.7654796189463582
% TCN (m^2) @ t=17, gamma=0.18, alpha=0.015
0.0017016330585941613
% TCTL (m^2) @ t=18, gamma=0.18, alpha=0.015
1.8910424599261573
% TCN (m^2) @ t=18, gamma=0.18, alpha=0.015
0.001828156783181863
% TCTL (m^2) @ t=19, gamma=0.18, alpha=0.015
2.028399565870134
% TCN (m^2) @ t=19, gamma=0.18, alpha=0.015
0.0019608387035658977
% TCTL (m^2) @ t=20, gamma=0.18, alpha=0.015
2.1781408125351436
% TCN (m^2) @ t=20, gamma=0.18, alpha=0.015
0.002099748472921849
% TCTL (m^2) @ t=21, gamma=0.18, alpha=0.015
2.3413933480676903
% TCN (m^2) @ t=21, gamma=0.18, alpha=0.015
0.0022436663058692926
% TCTL (m^2) @ t=22, gamma=0.18, alpha=0.015
2.519381023834208
% TCN (m^2) @ t=22, gamma=0.18, alpha=0.015
0.0023911435094084352
% TCTL (m^2) @ t=23, gamma=0.18, alpha=0.015
2.713194966658654
% TCN (m^2) @ t=23, gamma=0.18, alpha=0.015
0.0025409412713574453
% TCTL (m^2) @ t=24, gamma=0.18, alpha=0.015
2.923960959468512
% TCN (m^2) @ t=24, gamma=0.18, alpha=0.015
0.0026914319442627147
% TCTL (m^2) @ t=25, gamma=0.18, alpha=0.015
3.153004742098937
% TCN (m^2) @ t=25, gamma=0.18, alpha=0.015
0.0028407107622501274
% TCTL (m^2) @ t=26, gamma=0.18, alpha=0.015
3.401565761604365
% TCN (m^2) @ t=26, gamma=0.18, alpha=0.015
0.002986851795405872
% TCTL (m^2) @ t=27, gamma=0.18, alpha=0.015
3.6710264259835155
% TCN (m^2) @ t=27, gamma=0.18, alpha=0.015
0.003127569080506632
% TCTL (m^2) @ t=28, gamma=0.18, alpha=0.015
3.9631730942534027
% TCN (m^2) @ t=28, gamma=0.18, alpha=0.015
0.0032599031484916233
% TCTL (m^2) @ t=29, gamma=0.18, alpha=0.015
4.279743211740731
% TCN (m^2) @ t=29, gamma=0.18, alpha=0.015
0.003381063565872482
% TCTL (m^2) @ t=30, gamma=0.18, alpha=0.015
4.622397073486029
% TCN (m^2) @ t=30, gamma=0.18, alpha=0.015
0.00348848231376046
% TCTL (m^2) @ t=31, gamma=0.18, alpha=0.015
4.993490846027861
% TCN (m^2) @ t=31, gamma=0.18, alpha=0.015
0.0035789428046494823
% TCTL (m^2) @ t=32, gamma=0.18, alpha=0.015
5.394671079676306
% TCN (m^2) @ t=32, gamma=0.18, alpha=0.015
0.003649811564226055
% TCTL (m^2) @ t=33, gamma=0.18, alpha=0.015
5.828876868069636
% TCN (m^2) @ t=33, gamma=0.18, alpha=0.015
0.0036984081196350955
% TCTL (m^2) @ t=34, gamma=0.18, alpha=0.015
6.2981266067240345
% TCN (m^2) @ t=34, gamma=0.18, alpha=0.015
0.0037219397539465385
% TCTL (m^2) @ t=35, gamma=0.18, alpha=0.015
6.805180232190448
% TCN (m^2) @ t=35, gamma=0.18, alpha=0.015
0.003718977086371161
% TCTL (m^2) @ t=36, gamma=0.18, alpha=0.015
7.35297262109126
% TCN (m^2) @ t=36, gamma=0.18, alpha=0.015
0.0036884346713788054
% TCTL (m^2) @ t=37, gamma=0.18, alpha=0.015
7.944061304093999
% TCN (m^2) @ t=37, gamma=0.18, alpha=0.015
0.0036282330506390544
% TCTL (m^2) @ t=38, gamma=0.18, alpha=0.015
8.581983438548926
% TCN (m^2) @ t=38, gamma=0.18, alpha=0.015
0.0035381764359983013
% TCTL (m^2) @ t=39, gamma=0.18, alpha=0.015
9.269395409409913
% TCN (m^2) @ t=39, gamma=0.18, alpha=0.015
0.0034164799196778005
% TCTL (m^2) @ t=40, gamma=0.18, alpha=0.015
10.01369716455822
% TCN (m^2) @ t=40, gamma=0.18, alpha=0.015
0.0032695276363399585
% TCTL (m^2) @ t=41, gamma=0.18, alpha=0.015
10.812905596324628
% TCN (m^2) @ t=41, gamma=0.18, alpha=0.015
0.003096047245688912
% TCTL (m^2) @ t=42, gamma=0.18, alpha=0.015
11.669124822207081
% TCN (m^2) @ t=42, gamma=0.18, alpha=0.015
0.0029011245108655106
% TCTL (m^2) @ t=43, gamma=0.18, alpha=0.015
12.584574022461581
% TCN (m^2) @ t=43, gamma=0.18, alpha=0.015
0.002689604579706708
% TCTL (m^2) @ t=44, gamma=0.18, alpha=0.015
13.557106417534861
% TCN (m^2) @ t=44, gamma=0.18, alpha=0.015
0.002460670375131307
% TCTL (m^2) @ t=45, gamma=0.18, alpha=0.015
14.582656812609294
% TCN (m^2) @ t=45, gamma=0.18, alpha=0.015
0.0022286340846983644
% TCTL (m^2) @ t=46, gamma=0.18, alpha=0.015
15.663054180597356
% TCN (m^2) @ t=46, gamma=0.18, alpha=0.015
0.0019870565081879354
% TCTL (m^2) @ t=47, gamma=0.18, alpha=0.015
16.76245750449244
% TCN (m^2) @ t=47, gamma=0.18, alpha=0.015
0.0017537285277789566
% TCTL (m^2) @ t=48, gamma=0.18, alpha=0.015
17.884540870943702
% TCN (m^2) @ t=48, gamma=0.18, alpha=0.015
0.0015268263882281651
% TCTL (m^2) @ t=49, gamma=0.18, alpha=0.015
18.984022579755575
% TCN (m^2) @ t=49, gamma=0.18, alpha=0.015
0.0013074762742901972
% TCTL (m^2) @ t=50, gamma=0.18, alpha=0.015
20.000813635827537
% TCN (m^2) @ t=50, gamma=0.18, alpha=0.015
0.001100008670568157
% TCTL (m^2) @ t=51, gamma=0.18, alpha=0.015
20.943392804459815
% TCN (m^2) @ t=51, gamma=0.18, alpha=0.015
9.047098828577753E-4
% TCTL (m^2) @ t=52, gamma=0.18, alpha=0.015
21.634801016602157
% TCN (m^2) @ t=52, gamma=0.18, alpha=0.015
7.361488127945134E-4
% TCTL (m^2) @ t=53, gamma=0.18, alpha=0.015
21.970934625625254
% TCN (m^2) @ t=53, gamma=0.18, alpha=0.015
5.887955172536789E-4
% TCTL (m^2) @ t=54, gamma=0.18, alpha=0.015
21.80297929777247
% TCN (m^2) @ t=54, gamma=0.18, alpha=0.015
4.643823912392802E-4
% TCTL (m^2) @ t=55, gamma=0.18, alpha=0.015
21.308164927450747
% TCN (m^2) @ t=55, gamma=0.18, alpha=0.015
3.550655545178672E-4
% TCTL (m^2) @ t=56, gamma=0.18, alpha=0.015
20.412322093359847
% TCN (m^2) @ t=56, gamma=0.18, alpha=0.015
2.6534214831729563E-4
% TCTL (m^2) @ t=57, gamma=0.18, alpha=0.015
19.20037786156919
% TCN (m^2) @ t=57, gamma=0.18, alpha=0.015
1.9460424824251917E-4
% TCTL (m^2) @ t=58, gamma=0.18, alpha=0.015
17.804624106738494
% TCN (m^2) @ t=58, gamma=0.18, alpha=0.015
1.4052543225354653E-4
% TCTL (m^2) @ t=59, gamma=0.18, alpha=0.015
16.323562162084908
% TCN (m^2) @ t=59, gamma=0.18, alpha=0.015
1.0065431196369193E-4
% TCTL (m^2) @ t=60, gamma=0.18, alpha=0.015
14.858814403043464
% TCN (m^2) @ t=60, gamma=0.18, alpha=0.015
7.181679415991867E-5
% TCTL (m^2) @ t=61, gamma=0.18, alpha=0.015
13.473789138356095
% TCN (m^2) @ t=61, gamma=0.18, alpha=0.015
5.123307347018747E-5
% TCTL (m^2) @ t=62, gamma=0.18, alpha=0.015
12.197933200726292
% TCN (m^2) @ t=62, gamma=0.18, alpha=0.015
3.667586296956733E-5
% TCTL (m^2) @ t=63, gamma=0.18, alpha=0.015
11.037849489805218
% TCN (m^2) @ t=63, gamma=0.18, alpha=0.015
2.6440254779397562E-5
% TCTL (m^2) @ t=64, gamma=0.18, alpha=0.015
9.989159720405757
% TCN (m^2) @ t=64, gamma=0.18, alpha=0.015
1.9245715970894777E-5
% TCTL (m^2) @ t=65, gamma=0.18, alpha=0.015
9.041708262451522
% TCN (m^2) @ t=65, gamma=0.18, alpha=0.015
1.419654459271572E-5
% TCTL (m^2) @ t=66, gamma=0.18, alpha=0.015
8.18455149049983
% TCN (m^2) @ t=66, gamma=0.18, alpha=0.015
1.0672863038201224E-5
% TCTL (m^2) @ t=67, gamma=0.18, alpha=0.015
7.407404726116635
% TCN (m^2) @ t=67, gamma=0.18, alpha=0.015
8.231456179896622E-6
% TCTL (m^2) @ t=68, gamma=0.18, alpha=0.015
6.703077296943919
% TCN (m^2) @ t=68, gamma=0.18, alpha=0.015
6.537642748056727E-6
% TCTL (m^2) @ t=69, gamma=0.18, alpha=0.015
6.065467435260851
% TCN (m^2) @ t=69, gamma=0.18, alpha=0.015
5.373069601960605E-6
% TCTL (m^2) @ t=70, gamma=0.18, alpha=0.015
5.4872760586801865
% TCN (m^2) @ t=70, gamma=0.18, alpha=0.015
4.490698553282625E-6
% TCTL (m^2) @ t=71, gamma=0.18, alpha=0.015
4.96418273701227
% TCN (m^2) @ t=71, gamma=0.18, alpha=0.015
3.8131998409036736E-6
% TCTL (m^2) @ t=72, gamma=0.18, alpha=0.015
4.4907508479562654
% TCN (m^2) @ t=72, gamma=0.18, alpha=0.015
3.312623825246085E-6
% TCTL (m^2) @ t=73, gamma=0.18, alpha=0.015
4.062367985692053
% TCN (m^2) @ t=73, gamma=0.18, alpha=0.015
2.95477588115571E-6
% TCTL (m^2) @ t=74, gamma=0.18, alpha=0.015
3.6741291274688734
% TCN (m^2) @ t=74, gamma=0.18, alpha=0.015
2.7016066922918764E-6
% TCTL (m^2) @ t=75, gamma=0.18, alpha=0.015
3.32209806432916
% TCN (m^2) @ t=75, gamma=0.18, alpha=0.015
2.5245528731295194E-6
% TCTL (m^2) @ t=76, gamma=0.18, alpha=0.015
3.0027153996830047
% TCN (m^2) @ t=76, gamma=0.18, alpha=0.015
2.4121313335845266E-6
% TCTL (m^2) @ t=77, gamma=0.18, alpha=0.015
2.714900843043117
% TCN (m^2) @ t=77, gamma=0.18, alpha=0.015
2.3613103780244376E-6
% TCTL (m^2) @ t=78, gamma=0.18, alpha=0.015
2.453864342796341
% TCN (m^2) @ t=78, gamma=0.18, alpha=0.015
2.3586001240921896E-6
% TCTL (m^2) @ t=79, gamma=0.18, alpha=0.015
2.218129427053925
% TCN (m^2) @ t=79, gamma=0.18, alpha=0.015
2.4038328902640484E-6
% TCTL (m^2) @ t=80, gamma=0.18, alpha=0.015
2.005549669168066
% TCN (m^2) @ t=80, gamma=0.18, alpha=0.015
2.4938017831446164E-6
% TCTL (m^2) @ t=81, gamma=0.18, alpha=0.015
1.813537413247253
% TCN (m^2) @ t=81, gamma=0.18, alpha=0.015
2.6330329499538896E-6
% TCTL (m^2) @ t=82, gamma=0.18, alpha=0.015
1.6406406889574208
% TCN (m^2) @ t=82, gamma=0.18, alpha=0.015
2.822785209044432E-6
% TCTL (m^2) @ t=83, gamma=0.18, alpha=0.015
1.4849565556669155
% TCN (m^2) @ t=83, gamma=0.18, alpha=0.015
3.0647083576158186E-6
% TCTL (m^2) @ t=84, gamma=0.18, alpha=0.015
1.3446988823403192
% TCN (m^2) @ t=84, gamma=0.18, alpha=0.015
3.3687387386260642E-6
% TCTL (m^2) @ t=85, gamma=0.18, alpha=0.015
1.218009906024685
% TCN (m^2) @ t=85, gamma=0.18, alpha=0.015
3.7397310820359335E-6
% TCTL (m^2) @ t=86, gamma=0.18, alpha=0.015
1.1030051742736062
% TCN (m^2) @ t=86, gamma=0.18, alpha=0.015
4.180646748461644E-6
% TCTL (m^2) @ t=87, gamma=0.18, alpha=0.015
0.9987593676736088
% TCN (m^2) @ t=87, gamma=0.18, alpha=0.015
4.709470377161458E-6
% TCTL (m^2) @ t=88, gamma=0.18, alpha=0.015
0.9045566415923305
% TCN (m^2) @ t=88, gamma=0.18, alpha=0.015
5.347197676868757E-6
% TCTL (m^2) @ t=89, gamma=0.18, alpha=0.015
0.8183994176068753
% TCN (m^2) @ t=89, gamma=0.18, alpha=0.015
6.096400231602467E-6
% TCTL (m^2) @ t=90, gamma=0.18, alpha=0.015
0.7395351956923693
% TCN (m^2) @ t=90, gamma=0.18, alpha=0.015
6.984970007750676E-6
% TCTL (m^2) @ t=91, gamma=0.18, alpha=0.015
0.6692184629634063
% TCN (m^2) @ t=91, gamma=0.18, alpha=0.015
8.0908924903697E-6
% TCTL (m^2) @ t=92, gamma=0.18, alpha=0.015
0.605504643436998
% TCN (m^2) @ t=92, gamma=0.18, alpha=0.015
9.412305952818082E-6
% TCTL (m^2) @ t=93, gamma=0.18, alpha=0.015
0.5476028233975211
% TCN (m^2) @ t=93, gamma=0.18, alpha=0.015
1.0977557504408517E-5
% TCTL (m^2) @ t=94, gamma=0.18, alpha=0.015
0.49565522204844137
% TCN (m^2) @ t=94, gamma=0.18, alpha=0.015
1.291500047888436E-5
% TCTL (m^2) @ t=95, gamma=0.18, alpha=0.015
0.44866489191887615
% TCN (m^2) @ t=95, gamma=0.18, alpha=0.015
1.5230900824827643E-5
% TCTL (m^2) @ t=96, gamma=0.18, alpha=0.015
0.4060444959607238
% TCN (m^2) @ t=96, gamma=0.18, alpha=0.015
1.7978554403658317E-5
% TCTL (m^2) @ t=97, gamma=0.18, alpha=0.015
0.36768255785010306
% TCN (m^2) @ t=97, gamma=0.18, alpha=0.015
2.1300892847204247E-5
% TCTL (m^2) @ t=98, gamma=0.18, alpha=0.015
0.3328835632863215
% TCN (m^2) @ t=98, gamma=0.18, alpha=0.015
2.5230835148437067E-5
% TCTL (m^2) @ t=99, gamma=0.18, alpha=0.015
0.3012231777736354
% TCN (m^2) @ t=99, gamma=0.18, alpha=0.015
2.9862389218300933E-5
% TCTL (m^2) @ t=100, gamma=0.18, alpha=0.015
0.2727862284243578
% TCN (m^2) @ t=100, gamma=0.18, alpha=0.015
3.544566094924479E-5
% TCTL (m^2) @ t=101, gamma=0.18, alpha=0.015
0.24699774210726022
% TCN (m^2) @ t=101, gamma=0.18, alpha=0.015
4.2028475691383905E-5
% TCTL (m^2) @ t=102, gamma=0.18, alpha=0.015
0.22359829237423387
% TCN (m^2) @ t=102, gamma=0.18, alpha=0.015
4.978736888051202E-5
% TCTL (m^2) @ t=103, gamma=0.18, alpha=0.015
0.2026716423967388
% TCN (m^2) @ t=103, gamma=0.18, alpha=0.015
5.911344665633497E-5
% TCTL (m^2) @ t=104, gamma=0.18, alpha=0.015
0.18381336322077435
% TCN (m^2) @ t=104, gamma=0.18, alpha=0.015
7.009258527387768E-5
% TCTL (m^2) @ t=105, gamma=0.18, alpha=0.015
0.1668715646378401
% TCN (m^2) @ t=105, gamma=0.18, alpha=0.015
8.304146197152526E-5
% TCTL (m^2) @ t=106, gamma=0.18, alpha=0.015
0.15187298892287382
% TCN (m^2) @ t=106, gamma=0.18, alpha=0.015
9.853559634046368E-5
% TCTL (m^2) @ t=107, gamma=0.18, alpha=0.015
0.13855434172591752
% TCN (m^2) @ t=107, gamma=0.18, alpha=0.015
1.1673023859565989E-4
% TCTL (m^2) @ t=108, gamma=0.18, alpha=0.015
0.12682851157681613
% TCN (m^2) @ t=108, gamma=0.18, alpha=0.015
1.3819154526263655E-4
% TCTL (m^2) @ t=109, gamma=0.18, alpha=0.015
0.11673604822545611
% TCN (m^2) @ t=109, gamma=0.18, alpha=0.015
1.6393494376326303E-4
% TCTL (m^2) @ t=110, gamma=0.18, alpha=0.015
0.1081791827317743
% TCN (m^2) @ t=110, gamma=0.18, alpha=0.015
1.9448908439323624E-4
% TCTL (m^2) @ t=111, gamma=0.18, alpha=0.015
0.10111076055403026
% TCN (m^2) @ t=111, gamma=0.18, alpha=0.015
2.306905038474325E-4
% TCTL (m^2) @ t=112, gamma=0.18, alpha=0.015
0.09547802585153359
% TCN (m^2) @ t=112, gamma=0.18, alpha=0.015
2.7348891857834957E-4
% TCTL (m^2) @ t=113, gamma=0.18, alpha=0.015
0.09128577249117231
% TCN (m^2) @ t=113, gamma=0.18, alpha=0.015
3.2387250816149715E-4
% TCTL (m^2) @ t=114, gamma=0.18, alpha=0.015
0.08849098215678293
% TCN (m^2) @ t=114, gamma=0.18, alpha=0.015
3.830739985044972E-4
% TCTL (m^2) @ t=115, gamma=0.18, alpha=0.015
0.08704071943034886
% TCN (m^2) @ t=115, gamma=0.18, alpha=0.015
4.5248767821114274E-4
% TCTL (m^2) @ t=116, gamma=0.18, alpha=0.015
0.08693887803000366
% TCN (m^2) @ t=116, gamma=0.18, alpha=0.015
5.334787706567366E-4
% TCTL (m^2) @ t=117, gamma=0.18, alpha=0.015
0.08811637411592378
% TCN (m^2) @ t=117, gamma=0.18, alpha=0.015
6.279405318488935E-4
% TCTL (m^2) @ t=118, gamma=0.18, alpha=0.015
0.09050106214148443
% TCN (m^2) @ t=118, gamma=0.18, alpha=0.015
7.379371364108702E-4
% TCTL (m^2) @ t=119, gamma=0.18, alpha=0.015
0.09405740774179047
% TCN (m^2) @ t=119, gamma=0.18, alpha=0.015
8.65465956394804E-4
% TCTL (m^2) @ t=120, gamma=0.18, alpha=0.015
0.0987153294108091
% TCN (m^2) @ t=120, gamma=0.18, alpha=0.015
0.0010133796340115687
% TCTL (m^2) @ t=121, gamma=0.18, alpha=0.015
0.10440268329549163
% TCN (m^2) @ t=121, gamma=0.18, alpha=0.015
0.0011846254157132632
% TCTL (m^2) @ t=122, gamma=0.18, alpha=0.015
0.11104668930210518
% TCN (m^2) @ t=122, gamma=0.18, alpha=0.015
0.0013821825243603152
% TCTL (m^2) @ t=123, gamma=0.18, alpha=0.015
0.11864664410139514
% TCN (m^2) @ t=123, gamma=0.18, alpha=0.015
0.001610097544221775
% TCTL (m^2) @ t=124, gamma=0.18, alpha=0.015
0.12716517223014318
% TCN (m^2) @ t=124, gamma=0.18, alpha=0.015
0.0018724129406351773
% TCTL (m^2) @ t=125, gamma=0.18, alpha=0.015
0.13655611600569595
% TCN (m^2) @ t=125, gamma=0.18, alpha=0.015
0.0021734052915240473
% TCTL (m^2) @ t=126, gamma=0.18, alpha=0.015
0.14703169486403717
% TCN (m^2) @ t=126, gamma=0.18, alpha=0.015
0.0025196550307084306
% TCTL (m^2) @ t=127, gamma=0.18, alpha=0.015
0.15857629319967853
% TCN (m^2) @ t=127, gamma=0.18, alpha=0.015
0.0029153980519766544
% TCTL (m^2) @ t=128, gamma=0.18, alpha=0.015
0.17119698776135212
% TCN (m^2) @ t=128, gamma=0.18, alpha=0.015
0.0033651935290962727
% TCTL (m^2) @ t=129, gamma=0.18, alpha=0.015
0.18505102452610386
% TCN (m^2) @ t=129, gamma=0.18, alpha=0.015
0.003877908847446895
% TCTL (m^2) @ t=130, gamma=0.18, alpha=0.015
0.20015947567771664
% TCN (m^2) @ t=130, gamma=0.18, alpha=0.015
0.004458068333844618
% TCTL (m^2) @ t=131, gamma=0.18, alpha=0.015
0.2165813184571272
% TCN (m^2) @ t=131, gamma=0.18, alpha=0.015
0.005111449536065639
% TCTL (m^2) @ t=132, gamma=0.18, alpha=0.015
0.2345351115227922
% TCN (m^2) @ t=132, gamma=0.18, alpha=0.015
0.005850701154109577
% TCTL (m^2) @ t=133, gamma=0.18, alpha=0.015
0.2540599386597225
% TCN (m^2) @ t=133, gamma=0.18, alpha=0.015
0.006680699242389522
% TCTL (m^2) @ t=134, gamma=0.18, alpha=0.015
0.2752612896106661
% TCN (m^2) @ t=134, gamma=0.18, alpha=0.015
0.007609376199916454
% TCTL (m^2) @ t=135, gamma=0.18, alpha=0.015
0.2983607255673951
% TCN (m^2) @ t=135, gamma=0.18, alpha=0.015
0.008651698109380677
% TCTL (m^2) @ t=136, gamma=0.18, alpha=0.015
0.3234384554245177
% TCN (m^2) @ t=136, gamma=0.18, alpha=0.015
0.009814065404004473
% TCTL (m^2) @ t=137, gamma=0.18, alpha=0.015
0.350634175190041
% TCN (m^2) @ t=137, gamma=0.18, alpha=0.015
0.011106557008532537
% TCTL (m^2) @ t=138, gamma=0.18, alpha=0.015
0.3801675574646567
% TCN (m^2) @ t=138, gamma=0.18, alpha=0.015
0.012544507708446458
% TCTL (m^2) @ t=139, gamma=0.18, alpha=0.015
0.41215352557882273
% TCN (m^2) @ t=139, gamma=0.18, alpha=0.015
0.014136368430361847
% TCTL (m^2) @ t=140, gamma=0.18, alpha=0.015
0.4467659728757481
% TCN (m^2) @ t=140, gamma=0.18, alpha=0.015
0.015893555808571016
% TCTL (m^2) @ t=141, gamma=0.18, alpha=0.015
0.48425755244082835
% TCN (m^2) @ t=141, gamma=0.18, alpha=0.015
0.017829759351318496
% TCTL (m^2) @ t=142, gamma=0.18, alpha=0.015
0.5247672326980339
% TCN (m^2) @ t=142, gamma=0.18, alpha=0.015
0.019955387818352682
% TCTL (m^2) @ t=143, gamma=0.18, alpha=0.015
0.5685221287105002
% TCN (m^2) @ t=143, gamma=0.18, alpha=0.015
0.022281453586316044
% TCTL (m^2) @ t=144, gamma=0.18, alpha=0.015
0.6158430011116502
% TCN (m^2) @ t=144, gamma=0.18, alpha=0.015
0.02481802194065129
% TCTL (m^2) @ t=145, gamma=0.18, alpha=0.015
0.6668952279454365
% TCN (m^2) @ t=145, gamma=0.18, alpha=0.015
0.027576729639777635
% TCTL (m^2) @ t=146, gamma=0.18, alpha=0.015
0.7219885014982135
% TCN (m^2) @ t=146, gamma=0.18, alpha=0.015
0.030565429675795223
% TCTL (m^2) @ t=147, gamma=0.18, alpha=0.015
0.7815266657520887
% TCN (m^2) @ t=147, gamma=0.18, alpha=0.015
0.03378858893025154
% TCTL (m^2) @ t=148, gamma=0.18, alpha=0.015
0.8457183162458561
% TCN (m^2) @ t=148, gamma=0.18, alpha=0.015
0.037257696280516756
% TCTL (m^2) @ t=149, gamma=0.18, alpha=0.015
0.9149815539082199
% TCN (m^2) @ t=149, gamma=0.18, alpha=0.015
0.040973285279372655
% TCTL (m^2) @ t=150, gamma=0.18, alpha=0.015
0.9897991445853217
% TCN (m^2) @ t=150, gamma=0.18, alpha=0.015
0.044931959535580254
% TCTL (m^2) @ t=151, gamma=0.18, alpha=0.015
1.0704456864586254
% TCN (m^2) @ t=151, gamma=0.18, alpha=0.015
0.04914297383417357
% TCTL (m^2) @ t=152, gamma=0.18, alpha=0.015
1.1574748994773638
% TCN (m^2) @ t=152, gamma=0.18, alpha=0.015
0.05359369022623062
% TCTL (m^2) @ t=153, gamma=0.18, alpha=0.015
1.2514492087965423
% TCN (m^2) @ t=153, gamma=0.18, alpha=0.015
0.05827072481271463
% TCTL (m^2) @ t=154, gamma=0.18, alpha=0.015
1.3527291198863978
% TCN (m^2) @ t=154, gamma=0.18, alpha=0.015
0.06317799621633191
% TCTL (m^2) @ t=155, gamma=0.18, alpha=0.015
1.4620456010800398
% TCN (m^2) @ t=155, gamma=0.18, alpha=0.015
0.06828194580527627
% TCTL (m^2) @ t=156, gamma=0.18, alpha=0.015
1.580049459134273
% TCN (m^2) @ t=156, gamma=0.18, alpha=0.015
0.07355750052381478
% TCTL (m^2) @ t=157, gamma=0.18, alpha=0.015
1.70720869619971
% TCN (m^2) @ t=157, gamma=0.18, alpha=0.015
0.07899893826294331
% TCTL (m^2) @ t=158, gamma=0.18, alpha=0.015
1.8445289620797969
% TCN (m^2) @ t=158, gamma=0.18, alpha=0.015
0.08454415516078473
% TCTL (m^2) @ t=159, gamma=0.18, alpha=0.015
1.992774030651216
% TCN (m^2) @ t=159, gamma=0.18, alpha=0.015
0.09015636422646521
% TCTL (m^2) @ t=160, gamma=0.18, alpha=0.015
2.1525545302997187
% TCN (m^2) @ t=160, gamma=0.18, alpha=0.015
0.09581480802893588
% TCTL (m^2) @ t=161, gamma=0.18, alpha=0.015
2.330534778333307
% TCN (m^2) @ t=161, gamma=0.18, alpha=0.015
0.10126750498077207
% TCTL (m^2) @ t=162, gamma=0.18, alpha=0.015
2.525369107237554
% TCN (m^2) @ t=162, gamma=0.18, alpha=0.015
0.10656643691928902
% TCTL (m^2) @ t=163, gamma=0.18, alpha=0.015
2.735999174242246
% TCN (m^2) @ t=163, gamma=0.18, alpha=0.015
0.11175126621955148
% TCTL (m^2) @ t=164, gamma=0.18, alpha=0.015
2.967263733064179
% TCN (m^2) @ t=164, gamma=0.18, alpha=0.015
0.11650696333410182
% TCTL (m^2) @ t=165, gamma=0.18, alpha=0.015
3.217605174390693
% TCN (m^2) @ t=165, gamma=0.18, alpha=0.015
0.12093493721772591
% TCTL (m^2) @ t=166, gamma=0.18, alpha=0.015
3.4865888360845867
% TCN (m^2) @ t=166, gamma=0.18, alpha=0.015
0.12506348677224563
% TCTL (m^2) @ t=167, gamma=0.18, alpha=0.015
3.7828090249213635
% TCN (m^2) @ t=167, gamma=0.18, alpha=0.015
0.12845532085873426
% TCTL (m^2) @ t=168, gamma=0.18, alpha=0.015
4.102432132440239
% TCN (m^2) @ t=168, gamma=0.18, alpha=0.015
0.13130549918983778
% TCTL (m^2) @ t=169, gamma=0.18, alpha=0.015
4.445678069927851
% TCN (m^2) @ t=169, gamma=0.18, alpha=0.015
0.13360866156695736
% TCTL (m^2) @ t=170, gamma=0.18, alpha=0.015
4.823909456002989
% TCN (m^2) @ t=170, gamma=0.18, alpha=0.015
0.13494321759225322
% TCTL (m^2) @ t=171, gamma=0.18, alpha=0.015
5.231420604221811
% TCN (m^2) @ t=171, gamma=0.18, alpha=0.015
0.1355208669362414
% TCTL (m^2) @ t=172, gamma=0.18, alpha=0.015
5.669010543023196
% TCN (m^2) @ t=172, gamma=0.18, alpha=0.015
0.13532638250666054
% TCTL (m^2) @ t=173, gamma=0.18, alpha=0.015
6.145467455596144
% TCN (m^2) @ t=173, gamma=0.18, alpha=0.015
0.13419228781616097
% TCTL (m^2) @ t=174, gamma=0.18, alpha=0.015
6.659767165027853
% TCN (m^2) @ t=174, gamma=0.18, alpha=0.015
0.13213810061352996
% TCTL (m^2) @ t=175, gamma=0.18, alpha=0.015
7.214794611624342
% TCN (m^2) @ t=175, gamma=0.18, alpha=0.015
0.12914067004886434
% TCTL (m^2) @ t=176, gamma=0.18, alpha=0.015
7.817389802814995
% TCN (m^2) @ t=176, gamma=0.18, alpha=0.015
0.12526517147784785
% TCTL (m^2) @ t=177, gamma=0.18, alpha=0.015
8.469154931980212
% TCN (m^2) @ t=177, gamma=0.18, alpha=0.015
0.12045980721219593
% TCTL (m^2) @ t=178, gamma=0.18, alpha=0.015
9.174260205788853
% TCN (m^2) @ t=178, gamma=0.18, alpha=0.015
0.11476148732884062
% TCTL (m^2) @ t=179, gamma=0.18, alpha=0.015
9.93939888699808
% TCN (m^2) @ t=179, gamma=0.18, alpha=0.015
0.1083568738895687
% TCTL (m^2) @ t=180, gamma=0.18, alpha=0.015
10.767566237049365
% TCN (m^2) @ t=180, gamma=0.18, alpha=0.015
0.1012131399643933
% TCTL (m^2) @ t=181, gamma=0.18, alpha=0.015
11.664280589569993
% TCN (m^2) @ t=181, gamma=0.18, alpha=0.015
0.09346049623890729
% TCTL (m^2) @ t=182, gamma=0.18, alpha=0.015
12.63728406782966
% TCN (m^2) @ t=182, gamma=0.18, alpha=0.015
0.08538441081637652
% TCTL (m^2) @ t=183, gamma=0.18, alpha=0.015
13.69054294703189
% TCN (m^2) @ t=183, gamma=0.18, alpha=0.015
0.07700673495020982
% TCTL (m^2) @ t=184, gamma=0.18, alpha=0.015
14.831393005403301
% TCN (m^2) @ t=184, gamma=0.18, alpha=0.015
0.06848183378585018
% TCTL (m^2) @ t=185, gamma=0.18, alpha=0.015
16.06912841971659
% TCN (m^2) @ t=185, gamma=0.18, alpha=0.015
0.06000218722569633
% TCTL (m^2) @ t=186, gamma=0.18, alpha=0.015
17.408816207895143
% TCN (m^2) @ t=186, gamma=0.18, alpha=0.015
0.051678005333621733
% TCTL (m^2) @ t=187, gamma=0.18, alpha=0.015
18.868722427675856
% TCN (m^2) @ t=187, gamma=0.18, alpha=0.015
0.04387059323655337
% TCTL (m^2) @ t=188, gamma=0.18, alpha=0.015
20.457456181831912
% TCN (m^2) @ t=188, gamma=0.18, alpha=0.015
0.03674145642952688
% TCTL (m^2) @ t=189, gamma=0.18, alpha=0.015
22.166344548999618
% TCN (m^2) @ t=189, gamma=0.18, alpha=0.015
0.030117319851008705
% TCTL (m^2) @ t=190, gamma=0.18, alpha=0.015
24.034190674979723
% TCN (m^2) @ t=190, gamma=0.18, alpha=0.015
0.0242463633719164
% TCTL (m^2) @ t=191, gamma=0.18, alpha=0.015
26.0442409983403
% TCN (m^2) @ t=191, gamma=0.18, alpha=0.015
0.01902143339354587
% TCTL (m^2) @ t=192, gamma=0.18, alpha=0.015
28.22470263001344
% TCN (m^2) @ t=192, gamma=0.18, alpha=0.015
0.014560756498158849
% TCTL (m^2) @ t=193, gamma=0.18, alpha=0.015
30.574048651647054
% TCN (m^2) @ t=193, gamma=0.18, alpha=0.015
0.010847118005482801
% TCTL (m^2) @ t=194, gamma=0.18, alpha=0.015
33.12562688532846
% TCN (m^2) @ t=194, gamma=0.18, alpha=0.015
0.0077919422656374596
% TCTL (m^2) @ t=195, gamma=0.18, alpha=0.015
35.86199356384158
% TCN (m^2) @ t=195, gamma=0.18, alpha=0.015
0.005390671622831901
% TCTL (m^2) @ t=196, gamma=0.18, alpha=0.015
38.75830005318383
% TCN (m^2) @ t=196, gamma=0.18, alpha=0.015
0.0035402576065718854
% TCTL (m^2) @ t=197, gamma=0.18, alpha=0.015
41.74126282687847
% TCN (m^2) @ t=197, gamma=0.18, alpha=0.015
0.002237547027610904
% TCTL (m^2) @ t=198, gamma=0.18, alpha=0.015
44.58126557483785
% TCN (m^2) @ t=198, gamma=0.18, alpha=0.015
0.0013956495618182778
% TCTL (m^2) @ t=199, gamma=0.18, alpha=0.015
46.57720795368387
% TCN (m^2) @ t=199, gamma=0.18, alpha=0.015
8.274808411033185E-4
% TCTL (m^2) @ t=200, gamma=0.18, alpha=0.015
47.05108890736031
% TCN (m^2) @ t=200, gamma=0.18, alpha=0.015
4.713313726256767E-4
% TCTL (m^2) @ t=0, gamma=0.18, alpha=0.0175
0.8999974194437734
% TCN (m^2) @ t=0, gamma=0.18, alpha=0.0175
4.6384710330839014E-4
% TCTL (m^2) @ t=1, gamma=0.18, alpha=0.0175
0.8991706448045552
% TCN (m^2) @ t=1, gamma=0.18, alpha=0.0175
5.209073868881292E-4
% TCTL (m^2) @ t=2, gamma=0.18, alpha=0.0175
0.907262044878555
% TCN (m^2) @ t=2, gamma=0.18, alpha=0.0175
5.832722609810648E-4
% TCTL (m^2) @ t=3, gamma=0.18, alpha=0.0175
0.9232401812345717
% TCN (m^2) @ t=3, gamma=0.18, alpha=0.0175
6.509131261959319E-4
% TCTL (m^2) @ t=4, gamma=0.18, alpha=0.0175
0.9475608812010221
% TCN (m^2) @ t=4, gamma=0.18, alpha=0.0175
7.247724260030833E-4
% TCTL (m^2) @ t=5, gamma=0.18, alpha=0.0175
0.9799877511064032
% TCN (m^2) @ t=5, gamma=0.18, alpha=0.0175
8.051808661278729E-4
% TCTL (m^2) @ t=6, gamma=0.18, alpha=0.0175
1.0204688423480606
% TCN (m^2) @ t=6, gamma=0.18, alpha=0.0175
8.928110509764382E-4
% TCTL (m^2) @ t=7, gamma=0.18, alpha=0.0175
1.069023841285973
% TCN (m^2) @ t=7, gamma=0.18, alpha=0.0175
9.882805728654714E-4
% TCTL (m^2) @ t=8, gamma=0.18, alpha=0.0175
1.1257370147470882
% TCN (m^2) @ t=8, gamma=0.18, alpha=0.0175
0.0010922340417182054
% TCTL (m^2) @ t=9, gamma=0.18, alpha=0.0175
1.1907812705094032
% TCN (m^2) @ t=9, gamma=0.18, alpha=0.0175
0.001205589415596245
% TCTL (m^2) @ t=10, gamma=0.18, alpha=0.0175
1.2643307027057153
% TCN (m^2) @ t=10, gamma=0.18, alpha=0.0175
0.0013290540822272772
% TCTL (m^2) @ t=11, gamma=0.18, alpha=0.0175
1.3467542892713693
% TCN (m^2) @ t=11, gamma=0.18, alpha=0.0175
0.001463519150672878
% TCTL (m^2) @ t=12, gamma=0.18, alpha=0.0175
1.4382311687206641
% TCN (m^2) @ t=12, gamma=0.18, alpha=0.0175
0.0016097580916649649
% TCTL (m^2) @ t=13, gamma=0.18, alpha=0.0175
1.539496985521077
% TCN (m^2) @ t=13, gamma=0.18, alpha=0.0175
0.0017687730204510492
% TCTL (m^2) @ t=14, gamma=0.18, alpha=0.0175
1.6508540483746357
% TCN (m^2) @ t=14, gamma=0.18, alpha=0.0175
0.0019413982147686924
% TCTL (m^2) @ t=15, gamma=0.18, alpha=0.0175
1.772990165047325
% TCN (m^2) @ t=15, gamma=0.18, alpha=0.0175
0.0021281709931698783
% TCTL (m^2) @ t=16, gamma=0.18, alpha=0.0175
1.9066738743753062
% TCN (m^2) @ t=16, gamma=0.18, alpha=0.0175
0.002329558574879972
% TCTL (m^2) @ t=17, gamma=0.18, alpha=0.0175
2.052490043916075
% TCN (m^2) @ t=17, gamma=0.18, alpha=0.0175
0.0025459851974261264
% TCTL (m^2) @ t=18, gamma=0.18, alpha=0.0175
2.2115554364290375
% TCN (m^2) @ t=18, gamma=0.18, alpha=0.0175
0.002776215737629285
% TCTL (m^2) @ t=19, gamma=0.18, alpha=0.0175
2.384499694087113
% TCN (m^2) @ t=19, gamma=0.18, alpha=0.0175
0.0030207765269232916
% TCTL (m^2) @ t=20, gamma=0.18, alpha=0.0175
2.5729019997889333
% TCN (m^2) @ t=20, gamma=0.18, alpha=0.0175
0.0032770664635445004
% TCTL (m^2) @ t=21, gamma=0.18, alpha=0.0175
2.778077014221381
% TCN (m^2) @ t=21, gamma=0.18, alpha=0.0175
0.003543340229532185
% TCTL (m^2) @ t=22, gamma=0.18, alpha=0.0175
3.0012627060676644
% TCN (m^2) @ t=22, gamma=0.18, alpha=0.0175
0.003817317723763622
% TCTL (m^2) @ t=23, gamma=0.18, alpha=0.0175
3.24363484594718
% TCN (m^2) @ t=23, gamma=0.18, alpha=0.0175
0.004096017659500511
% TCTL (m^2) @ t=24, gamma=0.18, alpha=0.0175
3.506714330318372
% TCN (m^2) @ t=24, gamma=0.18, alpha=0.0175
0.004376040419875046
% TCTL (m^2) @ t=25, gamma=0.18, alpha=0.0175
3.7921594214884227
% TCN (m^2) @ t=25, gamma=0.18, alpha=0.0175
0.004653573138072111
% TCTL (m^2) @ t=26, gamma=0.18, alpha=0.0175
4.101594082652013
% TCN (m^2) @ t=26, gamma=0.18, alpha=0.0175
0.004924229235522328
% TCTL (m^2) @ t=27, gamma=0.18, alpha=0.0175
4.437003580082336
% TCN (m^2) @ t=27, gamma=0.18, alpha=0.0175
0.00518209198557663