% Model:              MODEL_SC_3_0.15_II.mph
% Version:            COMSOL 5.6.0.401
% Date:               May 21 2022, 13:15
% Dimension:          0
% Nodes:              12462
% Expressions:        12462
% Description:        , 
% TCTL (m^2) @ t=0, gamma=0.15, alpha=0.015
0.8999918490163263
% TCN (m^2) @ t=0, gamma=0.15, alpha=0.015
4.6384110328614016E-4
% TCTL (m^2) @ t=1, gamma=0.15, alpha=0.015
0.8832376098752475
% TCN (m^2) @ t=1, gamma=0.15, alpha=0.015
5.048226428371032E-4
% TCTL (m^2) @ t=2, gamma=0.15, alpha=0.015
0.8725035983055971
% TCN (m^2) @ t=2, gamma=0.15, alpha=0.015
5.496529180530508E-4
% TCTL (m^2) @ t=3, gamma=0.15, alpha=0.015
0.8663771943030893
% TCN (m^2) @ t=3, gamma=0.15, alpha=0.015
5.98003495975142E-4
% TCTL (m^2) @ t=4, gamma=0.15, alpha=0.015
0.8651894625381173
% TCN (m^2) @ t=4, gamma=0.15, alpha=0.015
6.509303435169446E-4
% TCTL (m^2) @ t=5, gamma=0.15, alpha=0.015
0.8688257317137706
% TCN (m^2) @ t=5, gamma=0.15, alpha=0.015
7.088874463186339E-4
% TCTL (m^2) @ t=6, gamma=0.15, alpha=0.015
0.8770654665025412
% TCN (m^2) @ t=6, gamma=0.15, alpha=0.015
7.721964970181711E-4
% TCTL (m^2) @ t=7, gamma=0.15, alpha=0.015
0.8896769498718187
% TCN (m^2) @ t=7, gamma=0.15, alpha=0.015
8.416259781371781E-4
% TCTL (m^2) @ t=8, gamma=0.15, alpha=0.015
0.9065631059842434
% TCN (m^2) @ t=8, gamma=0.15, alpha=0.015
9.175608983900708E-4
% TCTL (m^2) @ t=9, gamma=0.15, alpha=0.015
0.9275765716876231
% TCN (m^2) @ t=9, gamma=0.15, alpha=0.015
0.00100053679645598
% TCTL (m^2) @ t=10, gamma=0.15, alpha=0.015
0.9525339552174439
% TCN (m^2) @ t=10, gamma=0.15, alpha=0.015
0.0010912573848067357
% TCTL (m^2) @ t=11, gamma=0.15, alpha=0.015
0.9813723496456488
% TCN (m^2) @ t=11, gamma=0.15, alpha=0.015
0.0011903583427836833
% TCTL (m^2) @ t=12, gamma=0.15, alpha=0.015
1.0140105370713033
% TCN (m^2) @ t=12, gamma=0.15, alpha=0.015
0.001298585597942483
% TCTL (m^2) @ t=13, gamma=0.15, alpha=0.015
1.0503519275095465
% TCN (m^2) @ t=13, gamma=0.15, alpha=0.015
0.0014166283089743856
% TCTL (m^2) @ t=14, gamma=0.15, alpha=0.015
1.0903892726320565
% TCN (m^2) @ t=14, gamma=0.15, alpha=0.015
0.0015452733415673124
% TCTL (m^2) @ t=15, gamma=0.15, alpha=0.015
1.1340324966128807
% TCN (m^2) @ t=15, gamma=0.15, alpha=0.015
0.0016852290413764594
% TCTL (m^2) @ t=16, gamma=0.15, alpha=0.015
1.1812385382413113
% TCN (m^2) @ t=16, gamma=0.15, alpha=0.015
0.0018372279001115134
% TCTL (m^2) @ t=17, gamma=0.15, alpha=0.015
1.232133635323403
% TCN (m^2) @ t=17, gamma=0.15, alpha=0.015
0.0020020169074509773
% TCTL (m^2) @ t=18, gamma=0.15, alpha=0.015
1.2866347606104394
% TCN (m^2) @ t=18, gamma=0.15, alpha=0.015
0.0021803256573825337
% TCTL (m^2) @ t=19, gamma=0.15, alpha=0.015
1.3447846700998332
% TCN (m^2) @ t=19, gamma=0.15, alpha=0.015
0.0023727491367847055
% TCTL (m^2) @ t=20, gamma=0.15, alpha=0.015
1.4067505212155194
% TCN (m^2) @ t=20, gamma=0.15, alpha=0.015
0.0025795869225037037
% TCTL (m^2) @ t=21, gamma=0.15, alpha=0.015
1.4725052128700986
% TCN (m^2) @ t=21, gamma=0.15, alpha=0.015
0.002801599887648262
% TCTL (m^2) @ t=22, gamma=0.15, alpha=0.015
1.5421773178899814
% TCN (m^2) @ t=22, gamma=0.15, alpha=0.015
0.0030388222224332915
% TCTL (m^2) @ t=23, gamma=0.15, alpha=0.015
1.6159382466548493
% TCN (m^2) @ t=23, gamma=0.15, alpha=0.015
0.0032910149514877316
% TCTL (m^2) @ t=24, gamma=0.15, alpha=0.015
1.6938280038394185
% TCN (m^2) @ t=24, gamma=0.15, alpha=0.015
0.003558777044506389
% TCTL (m^2) @ t=25, gamma=0.15, alpha=0.015
1.77613938201088
% TCN (m^2) @ t=25, gamma=0.15, alpha=0.015
0.003841234059242215
% TCTL (m^2) @ t=26, gamma=0.15, alpha=0.015
1.8631796551782704
% TCN (m^2) @ t=26, gamma=0.15, alpha=0.015
0.004137429129589348
% TCTL (m^2) @ t=27, gamma=0.15, alpha=0.015
1.9551782509410764
% TCN (m^2) @ t=27, gamma=0.15, alpha=0.015
0.004446848466971121
% TCTL (m^2) @ t=28, gamma=0.15, alpha=0.015
2.0522882050867786
% TCN (m^2) @ t=28, gamma=0.15, alpha=0.015
0.004768484937389657
% TCTL (m^2) @ t=29, gamma=0.15, alpha=0.015
2.154774446704831
% TCN (m^2) @ t=29, gamma=0.15, alpha=0.015
0.005101135117306335
% TCTL (m^2) @ t=30, gamma=0.15, alpha=0.015
2.262919943155617
% TCN (m^2) @ t=30, gamma=0.15, alpha=0.015
0.005443382612906894
% TCTL (m^2) @ t=31, gamma=0.15, alpha=0.015
2.3767914011802924
% TCN (m^2) @ t=31, gamma=0.15, alpha=0.015
0.005792756569716716
% TCTL (m^2) @ t=32, gamma=0.15, alpha=0.015
2.496642697263758
% TCN (m^2) @ t=32, gamma=0.15, alpha=0.015
0.006147269881740906
% TCTL (m^2) @ t=33, gamma=0.15, alpha=0.015
2.62269413248019
% TCN (m^2) @ t=33, gamma=0.15, alpha=0.015
0.006504413804046032
% TCTL (m^2) @ t=34, gamma=0.15, alpha=0.015
2.7553612849800695
% TCN (m^2) @ t=34, gamma=0.15, alpha=0.015
0.006861352978215796
% TCTL (m^2) @ t=35, gamma=0.15, alpha=0.015
2.8948779500740778
% TCN (m^2) @ t=35, gamma=0.15, alpha=0.015
0.007215000311962562
% TCTL (m^2) @ t=36, gamma=0.15, alpha=0.015
3.0415761677045436
% TCN (m^2) @ t=36, gamma=0.15, alpha=0.015
0.007561919326636413
% TCTL (m^2) @ t=37, gamma=0.15, alpha=0.015
3.1958483773253863
% TCN (m^2) @ t=37, gamma=0.15, alpha=0.015
0.007898278120305514
% TCTL (m^2) @ t=38, gamma=0.15, alpha=0.015
3.3580626419787127
% TCN (m^2) @ t=38, gamma=0.15, alpha=0.015
0.008220054352887748
% TCTL (m^2) @ t=39, gamma=0.15, alpha=0.015
3.5286193734417632
% TCN (m^2) @ t=39, gamma=0.15, alpha=0.015
0.008523628255766443
% TCTL (m^2) @ t=40, gamma=0.15, alpha=0.015
3.7079372887055193
% TCN (m^2) @ t=40, gamma=0.15, alpha=0.015
0.008805625878643425
% TCTL (m^2) @ t=41, gamma=0.15, alpha=0.015
3.896467453722796
% TCN (m^2) @ t=41, gamma=0.15, alpha=0.015
0.009061656583746466
% TCTL (m^2) @ t=42, gamma=0.15, alpha=0.015
4.094721009606517
% TCN (m^2) @ t=42, gamma=0.15, alpha=0.015
0.009286940460856971
% TCTL (m^2) @ t=43, gamma=0.15, alpha=0.015
4.303158979778949
% TCN (m^2) @ t=43, gamma=0.15, alpha=0.015
0.009477148128369254
% TCTL (m^2) @ t=44, gamma=0.15, alpha=0.015
4.522227028798962
% TCN (m^2) @ t=44, gamma=0.15, alpha=0.015
0.009628182588709767
% TCTL (m^2) @ t=45, gamma=0.15, alpha=0.015
4.752577837110769
% TCN (m^2) @ t=45, gamma=0.15, alpha=0.015
0.009739671596263403
% TCTL (m^2) @ t=46, gamma=0.15, alpha=0.015
4.9946907354007575
% TCN (m^2) @ t=46, gamma=0.15, alpha=0.015
0.009807764620655166
% TCTL (m^2) @ t=47, gamma=0.15, alpha=0.015
5.249076345700627
% TCN (m^2) @ t=47, gamma=0.15, alpha=0.015
0.00982911028062632
% TCTL (m^2) @ t=48, gamma=0.15, alpha=0.015
5.51654330696383
% TCN (m^2) @ t=48, gamma=0.15, alpha=0.015
0.00980345517612022
% TCTL (m^2) @ t=49, gamma=0.15, alpha=0.015
5.797575998745792
% TCN (m^2) @ t=49, gamma=0.15, alpha=0.015
0.009727337532149556
% TCTL (m^2) @ t=50, gamma=0.15, alpha=0.015
6.092815914864875
% TCN (m^2) @ t=50, gamma=0.15, alpha=0.015
0.009600263922471071
% TCTL (m^2) @ t=51, gamma=0.15, alpha=0.015
6.403138035334052
% TCN (m^2) @ t=51, gamma=0.15, alpha=0.015
0.009429863795432434
% TCTL (m^2) @ t=52, gamma=0.15, alpha=0.015
6.729104364812826
% TCN (m^2) @ t=52, gamma=0.15, alpha=0.015
0.00921287833444257
% TCTL (m^2) @ t=53, gamma=0.15, alpha=0.015
7.071880944061068
% TCN (m^2) @ t=53, gamma=0.15, alpha=0.015
0.008948588690902648
% TCTL (m^2) @ t=54, gamma=0.15, alpha=0.015
7.43222683245758
% TCN (m^2) @ t=54, gamma=0.15, alpha=0.015
0.008635449237664648
% TCTL (m^2) @ t=55, gamma=0.15, alpha=0.015
7.81040202431646
% TCN (m^2) @ t=55, gamma=0.15, alpha=0.015
0.008279942136374042
% TCTL (m^2) @ t=56, gamma=0.15, alpha=0.015
8.208040398630704
% TCN (m^2) @ t=56, gamma=0.15, alpha=0.015
0.007892028105967076
% TCTL (m^2) @ t=57, gamma=0.15, alpha=0.015
8.625208719466837
% TCN (m^2) @ t=57, gamma=0.15, alpha=0.015
0.007472473518580526
% TCTL (m^2) @ t=58, gamma=0.15, alpha=0.015
9.063301529308045
% TCN (m^2) @ t=58, gamma=0.15, alpha=0.015
0.00703040190737793
% TCTL (m^2) @ t=59, gamma=0.15, alpha=0.015
9.52314535055829
% TCN (m^2) @ t=59, gamma=0.15, alpha=0.015
0.0065713195258764925
% TCTL (m^2) @ t=60, gamma=0.15, alpha=0.015
10.00717051782853
% TCN (m^2) @ t=60, gamma=0.15, alpha=0.015
0.006111290678863526
% TCTL (m^2) @ t=61, gamma=0.15, alpha=0.015
10.514258429437932
% TCN (m^2) @ t=61, gamma=0.15, alpha=0.015
0.005642921504499789
% TCTL (m^2) @ t=62, gamma=0.15, alpha=0.015
11.044409085386523
% TCN (m^2) @ t=62, gamma=0.15, alpha=0.015
0.005166212002785307
% TCTL (m^2) @ t=63, gamma=0.15, alpha=0.015
11.597709095904754
% TCN (m^2) @ t=63, gamma=0.15, alpha=0.015
0.004694687430444797
% TCTL (m^2) @ t=64, gamma=0.15, alpha=0.015
12.174239867789922
% TCN (m^2) @ t=64, gamma=0.15, alpha=0.015
0.004241060463865219
% TCTL (m^2) @ t=65, gamma=0.15, alpha=0.015
12.773919902395303
% TCN (m^2) @ t=65, gamma=0.15, alpha=0.015
0.003792604083234709
% TCTL (m^2) @ t=66, gamma=0.15, alpha=0.015
13.396749199720933
% TCN (m^2) @ t=66, gamma=0.15, alpha=0.015
0.003349318288553297
% TCTL (m^2) @ t=67, gamma=0.15, alpha=0.015
14.01182409949921
% TCN (m^2) @ t=67, gamma=0.15, alpha=0.015
0.002949521729886402
% TCTL (m^2) @ t=68, gamma=0.15, alpha=0.015
14.630340752430772
% TCN (m^2) @ t=68, gamma=0.15, alpha=0.015
0.002579331864614052
% TCTL (m^2) @ t=69, gamma=0.15, alpha=0.015
15.255985750623186
% TCN (m^2) @ t=69, gamma=0.15, alpha=0.015
0.0022341775438276873
% TCTL (m^2) @ t=70, gamma=0.15, alpha=0.015
15.865800335460317
% TCN (m^2) @ t=70, gamma=0.15, alpha=0.015
0.0019160483912007851
% TCTL (m^2) @ t=71, gamma=0.15, alpha=0.015
16.397237394899776
% TCN (m^2) @ t=71, gamma=0.15, alpha=0.015
0.0016303647875522632
% TCTL (m^2) @ t=72, gamma=0.15, alpha=0.015
16.893668349002787
% TCN (m^2) @ t=72, gamma=0.15, alpha=0.015
0.0013733681322735303
% TCTL (m^2) @ t=73, gamma=0.15, alpha=0.015
17.355093197769445
% TCN (m^2) @ t=73, gamma=0.15, alpha=0.015
0.0011450584253645682
% TCTL (m^2) @ t=74, gamma=0.15, alpha=0.015
17.68460034732703
% TCN (m^2) @ t=74, gamma=0.15, alpha=0.015
9.41122332054315E-4
% TCTL (m^2) @ t=75, gamma=0.15, alpha=0.015
17.881872455331408
% TCN (m^2) @ t=75, gamma=0.15, alpha=0.015
7.615457280908367E-4
% TCTL (m^2) @ t=76, gamma=0.15, alpha=0.015
17.900489328461905
% TCN (m^2) @ t=76, gamma=0.15, alpha=0.015
6.071387711615062E-4
% TCTL (m^2) @ t=77, gamma=0.15, alpha=0.015
17.61666766116837
% TCN (m^2) @ t=77, gamma=0.15, alpha=0.015
4.7691559763026305E-4
% TCTL (m^2) @ t=78, gamma=0.15, alpha=0.015
17.09594491695533
% TCN (m^2) @ t=78, gamma=0.15, alpha=0.015
3.706522410017813E-4
% TCTL (m^2) @ t=79, gamma=0.15, alpha=0.015
16.333813259314066
% TCN (m^2) @ t=79, gamma=0.15, alpha=0.015
2.8288205227860005E-4
% TCTL (m^2) @ t=80, gamma=0.15, alpha=0.015
15.346764972715224
% TCN (m^2) @ t=80, gamma=0.15, alpha=0.015
2.1526856260425438E-4
% TCTL (m^2) @ t=81, gamma=0.15, alpha=0.015
14.294331454615788
% TCN (m^2) @ t=81, gamma=0.15, alpha=0.015
1.6048655549833998E-4
% TCTL (m^2) @ t=82, gamma=0.15, alpha=0.015
13.127581223545413
% TCN (m^2) @ t=82, gamma=0.15, alpha=0.015
1.2085786733279564E-4
% TCTL (m^2) @ t=83, gamma=0.15, alpha=0.015
12.027140220257824
% TCN (m^2) @ t=83, gamma=0.15, alpha=0.015
8.944431930189866E-5
% TCTL (m^2) @ t=84, gamma=0.15, alpha=0.015
10.949835320597241
% TCN (m^2) @ t=84, gamma=0.15, alpha=0.015
6.723624812412951E-5
% TCTL (m^2) @ t=85, gamma=0.15, alpha=0.015
9.947564380490135
% TCN (m^2) @ t=85, gamma=0.15, alpha=0.015
5.064693652351517E-5
% TCTL (m^2) @ t=86, gamma=0.15, alpha=0.015
9.018746403256177
% TCN (m^2) @ t=86, gamma=0.15, alpha=0.015
3.830991918609194E-5
% TCTL (m^2) @ t=87, gamma=0.15, alpha=0.015
8.165313323828686
% TCN (m^2) @ t=87, gamma=0.15, alpha=0.015
2.9524881993039388E-5
% TCTL (m^2) @ t=88, gamma=0.15, alpha=0.015
7.387280001955247
% TCN (m^2) @ t=88, gamma=0.15, alpha=0.015
2.300338183914951E-5
% TCTL (m^2) @ t=89, gamma=0.15, alpha=0.015
6.679220922596341
% TCN (m^2) @ t=89, gamma=0.15, alpha=0.015
1.8224594152085062E-5
% TCTL (m^2) @ t=90, gamma=0.15, alpha=0.015
6.039115601283948
% TCN (m^2) @ t=90, gamma=0.15, alpha=0.015
1.4882337394786176E-5
% TCTL (m^2) @ t=91, gamma=0.15, alpha=0.015
5.461481441240357
% TCN (m^2) @ t=91, gamma=0.15, alpha=0.015
1.2482241428910826E-5
% TCTL (m^2) @ t=92, gamma=0.15, alpha=0.015
4.940708436291511
% TCN (m^2) @ t=92, gamma=0.15, alpha=0.015
1.0781712034523316E-5
% TCTL (m^2) @ t=93, gamma=0.15, alpha=0.015
4.469953411988461
% TCN (m^2) @ t=93, gamma=0.15, alpha=0.015
9.499599707406747E-6
% TCTL (m^2) @ t=94, gamma=0.15, alpha=0.015
4.045536088165299
% TCN (m^2) @ t=94, gamma=0.15, alpha=0.015
8.581345044077506E-6
% TCTL (m^2) @ t=95, gamma=0.15, alpha=0.015
3.6621201802824817
% TCN (m^2) @ t=95, gamma=0.15, alpha=0.015
7.904729452839526E-6
% TCTL (m^2) @ t=96, gamma=0.15, alpha=0.015
3.314798852465549
% TCN (m^2) @ t=96, gamma=0.15, alpha=0.015
7.427924957753516E-6
% TCTL (m^2) @ t=97, gamma=0.15, alpha=0.015
3.0007910550113115
% TCN (m^2) @ t=97, gamma=0.15, alpha=0.015
7.136584537182447E-6
% TCTL (m^2) @ t=98, gamma=0.15, alpha=0.015
2.716334303986825
% TCN (m^2) @ t=98, gamma=0.15, alpha=0.015
6.987391961864886E-6
% TCTL (m^2) @ t=99, gamma=0.15, alpha=0.015
2.458451016474098
% TCN (m^2) @ t=99, gamma=0.15, alpha=0.015
6.954109744954276E-6
% TCTL (m^2) @ t=100, gamma=0.15, alpha=0.015
2.2248621897187975
% TCN (m^2) @ t=100, gamma=0.15, alpha=0.015
7.026973554056687E-6
% TCTL (m^2) @ t=101, gamma=0.15, alpha=0.015
2.013326317603367
% TCN (m^2) @ t=101, gamma=0.15, alpha=0.015
7.196161096576431E-6
% TCTL (m^2) @ t=102, gamma=0.15, alpha=0.015
1.8215557340522022
% TCN (m^2) @ t=102, gamma=0.15, alpha=0.015
7.453368885531885E-6
% TCTL (m^2) @ t=103, gamma=0.15, alpha=0.015
1.6480892957164142
% TCN (m^2) @ t=103, gamma=0.15, alpha=0.015
7.81622056313123E-6
% TCTL (m^2) @ t=104, gamma=0.15, alpha=0.015
1.4913779057764485
% TCN (m^2) @ t=104, gamma=0.15, alpha=0.015
8.310042146506512E-6
% TCTL (m^2) @ t=105, gamma=0.15, alpha=0.015
1.3495821777364632
% TCN (m^2) @ t=105, gamma=0.15, alpha=0.015
8.966269539071796E-6
% TCTL (m^2) @ t=106, gamma=0.15, alpha=0.015
1.2214036845173686
% TCN (m^2) @ t=106, gamma=0.15, alpha=0.015
9.807510874726784E-6
% TCTL (m^2) @ t=107, gamma=0.15, alpha=0.015
1.105424769451594
% TCN (m^2) @ t=107, gamma=0.15, alpha=0.015
1.085356870523867E-5
% TCTL (m^2) @ t=108, gamma=0.15, alpha=0.015
1.0004453579290478
% TCN (m^2) @ t=108, gamma=0.15, alpha=0.015
1.2112996847897448E-5
% TCTL (m^2) @ t=109, gamma=0.15, alpha=0.015
0.9055507024493712
% TCN (m^2) @ t=109, gamma=0.15, alpha=0.015
1.3614476170422154E-5
% TCTL (m^2) @ t=110, gamma=0.15, alpha=0.015
0.8197620834336978
% TCN (m^2) @ t=110, gamma=0.15, alpha=0.015
1.539061985620735E-5
% TCTL (m^2) @ t=111, gamma=0.15, alpha=0.015
0.7423263319125335
% TCN (m^2) @ t=111, gamma=0.15, alpha=0.015
1.7500652012947605E-5
% TCTL (m^2) @ t=112, gamma=0.15, alpha=0.015
0.6723375070829953
% TCN (m^2) @ t=112, gamma=0.15, alpha=0.015
1.9983858045364722E-5
% TCTL (m^2) @ t=113, gamma=0.15, alpha=0.015
0.6090687258126156
% TCN (m^2) @ t=113, gamma=0.15, alpha=0.015
2.2929031072951073E-5
% TCTL (m^2) @ t=114, gamma=0.15, alpha=0.015
0.5520107188797829
% TCN (m^2) @ t=114, gamma=0.15, alpha=0.015
2.6494377296842173E-5
% TCTL (m^2) @ t=115, gamma=0.15, alpha=0.015
0.5002984625735356
% TCN (m^2) @ t=115, gamma=0.15, alpha=0.015
3.072462664582995E-5
% TCTL (m^2) @ t=116, gamma=0.15, alpha=0.015
0.45340163841891895
% TCN (m^2) @ t=116, gamma=0.15, alpha=0.015
3.573913244359523E-5
% TCTL (m^2) @ t=117, gamma=0.15, alpha=0.015
0.41120066663852806
% TCN (m^2) @ t=117, gamma=0.15, alpha=0.015
4.172522317827199E-5
% TCTL (m^2) @ t=118, gamma=0.15, alpha=0.015
0.37288042894227985
% TCN (m^2) @ t=118, gamma=0.15, alpha=0.015
4.875511925330457E-5
% TCTL (m^2) @ t=119, gamma=0.15, alpha=0.015
0.33833261270570475
% TCN (m^2) @ t=119, gamma=0.15, alpha=0.015
5.7125918964291944E-5
% TCTL (m^2) @ t=120, gamma=0.15, alpha=0.015
0.307319110763966
% TCN (m^2) @ t=120, gamma=0.15, alpha=0.015
6.708276061657324E-5
% TCTL (m^2) @ t=121, gamma=0.15, alpha=0.015
0.27933970766956673
% TCN (m^2) @ t=121, gamma=0.15, alpha=0.015
7.87687874699625E-5
% TCTL (m^2) @ t=122, gamma=0.15, alpha=0.015
0.25438766571651567
% TCN (m^2) @ t=122, gamma=0.15, alpha=0.015
9.27276095092705E-5
% TCTL (m^2) @ t=123, gamma=0.15, alpha=0.015
0.23206776513877864
% TCN (m^2) @ t=123, gamma=0.15, alpha=0.015
1.091314501943568E-4
% TCTL (m^2) @ t=124, gamma=0.15, alpha=0.015
0.21219689874732495
% TCN (m^2) @ t=124, gamma=0.15, alpha=0.015
1.2841263983758174E-4
% TCTL (m^2) @ t=125, gamma=0.15, alpha=0.015
0.19476961902573264
% TCN (m^2) @ t=125, gamma=0.15, alpha=0.015
1.512785084600168E-4
% TCTL (m^2) @ t=126, gamma=0.15, alpha=0.015
0.17950604721973007
% TCN (m^2) @ t=126, gamma=0.15, alpha=0.015
1.7801159350397367E-4
% TCTL (m^2) @ t=127, gamma=0.15, alpha=0.015
0.1663879857652975
% TCN (m^2) @ t=127, gamma=0.15, alpha=0.015
2.09519421732684E-4
% TCTL (m^2) @ t=128, gamma=0.15, alpha=0.015
0.15533644006028666
% TCN (m^2) @ t=128, gamma=0.15, alpha=0.015
2.4653649175459115E-4
% TCTL (m^2) @ t=129, gamma=0.15, alpha=0.015
0.14619681330006407
% TCN (m^2) @ t=129, gamma=0.15, alpha=0.015
2.8959472026063223E-4
% TCTL (m^2) @ t=130, gamma=0.15, alpha=0.015
0.13894756533866143
% TCN (m^2) @ t=130, gamma=0.15, alpha=0.015
3.400007217898097E-4
% TCTL (m^2) @ t=131, gamma=0.15, alpha=0.015
0.1334991827930574
% TCN (m^2) @ t=131, gamma=0.15, alpha=0.015
3.985768832667577E-4
% TCTL (m^2) @ t=132, gamma=0.15, alpha=0.015
0.12976673750100226
% TCN (m^2) @ t=132, gamma=0.15, alpha=0.015
4.666043050005029E-4
% TCTL (m^2) @ t=133, gamma=0.15, alpha=0.015
0.12761333242501827
% TCN (m^2) @ t=133, gamma=0.15, alpha=0.015
5.459025519454444E-4
% TCTL (m^2) @ t=134, gamma=0.15, alpha=0.015
0.1269680862803923
% TCN (m^2) @ t=134, gamma=0.15, alpha=0.015
6.37971436985201E-4
% TCTL (m^2) @ t=135, gamma=0.15, alpha=0.015
0.12766433114315465
% TCN (m^2) @ t=135, gamma=0.15, alpha=0.015
7.446018290887247E-4
% TCTL (m^2) @ t=136, gamma=0.15, alpha=0.015
0.12953816819858122
% TCN (m^2) @ t=136, gamma=0.15, alpha=0.015
8.67754820999747E-4
% TCTL (m^2) @ t=137, gamma=0.15, alpha=0.015
0.13244452941540233
% TCN (m^2) @ t=137, gamma=0.15, alpha=0.015
0.0010096141893673263
% TCTL (m^2) @ t=138, gamma=0.15, alpha=0.015
0.1363330686629491
% TCN (m^2) @ t=138, gamma=0.15, alpha=0.015
0.001173425543219451
% TCTL (m^2) @ t=139, gamma=0.15, alpha=0.015
0.14104848066203185
% TCN (m^2) @ t=139, gamma=0.15, alpha=0.015
0.001361922957271079
% TCTL (m^2) @ t=140, gamma=0.15, alpha=0.015
0.14648738960893137
% TCN (m^2) @ t=140, gamma=0.15, alpha=0.015
0.0015783144321472686
% TCTL (m^2) @ t=141, gamma=0.15, alpha=0.015
0.1525831357826848
% TCN (m^2) @ t=141, gamma=0.15, alpha=0.015
0.0018260277777744024
% TCTL (m^2) @ t=142, gamma=0.15, alpha=0.015
0.1592378828194009
% TCN (m^2) @ t=142, gamma=0.15, alpha=0.015
0.0021088125437440145
% TCTL (m^2) @ t=143, gamma=0.15, alpha=0.015
0.16647665652127167
% TCN (m^2) @ t=143, gamma=0.15, alpha=0.015
0.0024316575920920527
% TCTL (m^2) @ t=144, gamma=0.15, alpha=0.015
0.17431689355926783
% TCN (m^2) @ t=144, gamma=0.15, alpha=0.015
0.002799657293121799
% TCTL (m^2) @ t=145, gamma=0.15, alpha=0.015
0.1827679604402233
% TCN (m^2) @ t=145, gamma=0.15, alpha=0.015
0.0032180746681744685
% TCTL (m^2) @ t=146, gamma=0.15, alpha=0.015
0.19178985585252883
% TCN (m^2) @ t=146, gamma=0.15, alpha=0.015
0.0036928759862946596
% TCTL (m^2) @ t=147, gamma=0.15, alpha=0.015
0.20140784260558253
% TCN (m^2) @ t=147, gamma=0.15, alpha=0.015
0.0042304075726340516
% TCTL (m^2) @ t=148, gamma=0.15, alpha=0.015
0.21160949730565154
% TCN (m^2) @ t=148, gamma=0.15, alpha=0.015
0.00483748694557283
% TCTL (m^2) @ t=149, gamma=0.15, alpha=0.015
0.2223675315737852
% TCN (m^2) @ t=149, gamma=0.15, alpha=0.015
0.005521351626031649
% TCTL (m^2) @ t=150, gamma=0.15, alpha=0.015
0.23367885498243007
% TCN (m^2) @ t=150, gamma=0.15, alpha=0.015
0.006289732461620756
% TCTL (m^2) @ t=151, gamma=0.15, alpha=0.015
0.24560860645095087
% TCN (m^2) @ t=151, gamma=0.15, alpha=0.015
0.00715188623289169
% TCTL (m^2) @ t=152, gamma=0.15, alpha=0.015
0.25819930828556314
% TCN (m^2) @ t=152, gamma=0.15, alpha=0.015
0.008117247557899523
% TCTL (m^2) @ t=153, gamma=0.15, alpha=0.015
0.27147976278734265
% TCN (m^2) @ t=153, gamma=0.15, alpha=0.015
0.00919564748386456
% TCTL (m^2) @ t=154, gamma=0.15, alpha=0.015
0.2854058449581849
% TCN (m^2) @ t=154, gamma=0.15, alpha=0.015
0.010397384117385996
% TCTL (m^2) @ t=155, gamma=0.15, alpha=0.015
0.3000152468654187
% TCN (m^2) @ t=155, gamma=0.15, alpha=0.015
0.011733610804465763
% TCTL (m^2) @ t=156, gamma=0.15, alpha=0.015
0.31534259245883317
% TCN (m^2) @ t=156, gamma=0.15, alpha=0.015
0.013215994221655064
% TCTL (m^2) @ t=157, gamma=0.15, alpha=0.015
0.3314498443063321
% TCN (m^2) @ t=157, gamma=0.15, alpha=0.015
0.014856794939179963
% TCTL (m^2) @ t=158, gamma=0.15, alpha=0.015
0.34836950170777015
% TCN (m^2) @ t=158, gamma=0.15, alpha=0.015
0.016668856887377757
% TCTL (m^2) @ t=159, gamma=0.15, alpha=0.015
0.36622313681055424
% TCN (m^2) @ t=159, gamma=0.15, alpha=0.015
0.01866786136458059
% TCTL (m^2) @ t=160, gamma=0.15, alpha=0.015
0.3851135494934717
% TCN (m^2) @ t=160, gamma=0.15, alpha=0.015
0.020869308338843436
% TCTL (m^2) @ t=161, gamma=0.15, alpha=0.015
0.4050528541636774
% TCN (m^2) @ t=161, gamma=0.15, alpha=0.015
0.02328728346386725
% TCTL (m^2) @ t=162, gamma=0.15, alpha=0.015
0.4253033715711614
% TCN (m^2) @ t=162, gamma=0.15, alpha=0.015
0.025920669337957915
% TCTL (m^2) @ t=163, gamma=0.15, alpha=0.015
0.44574009358615563
% TCN (m^2) @ t=163, gamma=0.15, alpha=0.015
0.028781889457481228
% TCTL (m^2) @ t=164, gamma=0.15, alpha=0.015
0.46692852109573246
% TCN (m^2) @ t=164, gamma=0.15, alpha=0.015
0.031895617058359804
% TCTL (m^2) @ t=165, gamma=0.15, alpha=0.015
0.4899785801061977
% TCN (m^2) @ t=165, gamma=0.15, alpha=0.015
0.03529616511271401
% TCTL (m^2) @ t=166, gamma=0.15, alpha=0.015
0.5146625702930315
% TCN (m^2) @ t=166, gamma=0.15, alpha=0.015
0.03899343368810722
% TCTL (m^2) @ t=167, gamma=0.15, alpha=0.015
0.5406478112060915
% TCN (m^2) @ t=167, gamma=0.15, alpha=0.015
0.042994934962693666
% TCTL (m^2) @ t=168, gamma=0.15, alpha=0.015
0.5680732911059831
% TCN (m^2) @ t=168, gamma=0.15, alpha=0.015
0.04731718910392356
% TCTL (m^2) @ t=169, gamma=0.15, alpha=0.015
0.597049361732844
% TCN (m^2) @ t=169, gamma=0.15, alpha=0.015
0.05197509109854923
% TCTL (m^2) @ t=170, gamma=0.15, alpha=0.015
0.6275341937855572
% TCN (m^2) @ t=170, gamma=0.15, alpha=0.015
0.05697511245845256
% TCTL (m^2) @ t=171, gamma=0.15, alpha=0.015
0.6596064110408808
% TCN (m^2) @ t=171, gamma=0.15, alpha=0.015
0.06233283312916557
% TCTL (m^2) @ t=172, gamma=0.15, alpha=0.015
0.6933359429412234
% TCN (m^2) @ t=172, gamma=0.15, alpha=0.015
0.06805573334730272
% TCTL (m^2) @ t=173, gamma=0.15, alpha=0.015
0.7288014093785495
% TCN (m^2) @ t=173, gamma=0.15, alpha=0.015
0.07414973529986622
% TCTL (m^2) @ t=174, gamma=0.15, alpha=0.015
0.766046930751891
% TCN (m^2) @ t=174, gamma=0.15, alpha=0.015
0.08062694634543935
% TCTL (m^2) @ t=175, gamma=0.15, alpha=0.015
0.8052525602794418
% TCN (m^2) @ t=175, gamma=0.15, alpha=0.015
0.08746827776666585
% TCTL (m^2) @ t=176, gamma=0.15, alpha=0.015
0.8464931064239207
% TCN (m^2) @ t=176, gamma=0.15, alpha=0.015
0.09467936940358047
% TCTL (m^2) @ t=177, gamma=0.15, alpha=0.015
0.8898547917744969
% TCN (m^2) @ t=177, gamma=0.15, alpha=0.015
0.10226317920599023
% TCTL (m^2) @ t=178, gamma=0.15, alpha=0.015
0.9354321108516879
% TCN (m^2) @ t=178, gamma=0.15, alpha=0.015
0.11022072153109314
% TCTL (m^2) @ t=179, gamma=0.15, alpha=0.015
0.9833195581760119
% TCN (m^2) @ t=179, gamma=0.15, alpha=0.015
0.11855301073608684
% TCTL (m^2) @ t=180, gamma=0.15, alpha=0.015
1.03366988027947
% TCN (m^2) @ t=180, gamma=0.15, alpha=0.015
0.12721312849511085
% TCTL (m^2) @ t=181, gamma=0.15, alpha=0.015
1.0866085235674692
% TCN (m^2) @ t=181, gamma=0.15, alpha=0.015
0.13617662039869394
% TCTL (m^2) @ t=182, gamma=0.15, alpha=0.015
1.1422117228167106
% TCN (m^2) @ t=182, gamma=0.15, alpha=0.015
0.1454595258390587
% TCTL (m^2) @ t=183, gamma=0.15, alpha=0.015
1.2005857690976325
% TCN (m^2) @ t=183, gamma=0.15, alpha=0.015
0.15505315237918366
% TCTL (m^2) @ t=184, gamma=0.15, alpha=0.015
1.2618369534806648
% TCN (m^2) @ t=184, gamma=0.15, alpha=0.015
0.1649488075820473
% TCTL (m^2) @ t=185, gamma=0.15, alpha=0.015
1.3261617051389722
% TCN (m^2) @ t=185, gamma=0.15, alpha=0.015
0.17508635528977054
% TCTL (m^2) @ t=186, gamma=0.15, alpha=0.015
1.3939343124488224
% TCN (m^2) @ t=186, gamma=0.15, alpha=0.015
0.1853041513370986
% TCTL (m^2) @ t=187, gamma=0.15, alpha=0.015
1.4651159120708006
% TCN (m^2) @ t=187, gamma=0.15, alpha=0.015
0.19567634597745365
% TCTL (m^2) @ t=188, gamma=0.15, alpha=0.015
1.5398451285011785
% TCN (m^2) @ t=188, gamma=0.15, alpha=0.015
0.20617579340411837
% TCTL (m^2) @ t=189, gamma=0.15, alpha=0.015
1.6182605862362303
% TCN (m^2) @ t=189, gamma=0.15, alpha=0.015
0.21677534781037527
% TCTL (m^2) @ t=190, gamma=0.15, alpha=0.015
1.700500909772238
% TCN (m^2) @ t=190, gamma=0.15, alpha=0.015
0.22744786338950668
% TCTL (m^2) @ t=191, gamma=0.15, alpha=0.015
1.787203832981739
% TCN (m^2) @ t=191, gamma=0.15, alpha=0.015
0.23790232542332196
% TCTL (m^2) @ t=192, gamma=0.15, alpha=0.015
1.878292438661705
% TCN (m^2) @ t=192, gamma=0.15, alpha=0.015
0.24822554058982768
% TCTL (m^2) @ t=193, gamma=0.15, alpha=0.015
1.9739331490515988
% TCN (m^2) @ t=193, gamma=0.15, alpha=0.015
0.2583756669844406
% TCTL (m^2) @ t=194, gamma=0.15, alpha=0.015
2.0743073899034754
% TCN (m^2) @ t=194, gamma=0.15, alpha=0.015
0.2683029306525716
% TCTL (m^2) @ t=195, gamma=0.15, alpha=0.015
2.1795965869693834
% TCN (m^2) @ t=195, gamma=0.15, alpha=0.015
0.2779575576396319
% TCTL (m^2) @ t=196, gamma=0.15, alpha=0.015
2.2903886882427047
% TCN (m^2) @ t=196, gamma=0.15, alpha=0.015
0.28716765144599654
% TCTL (m^2) @ t=197, gamma=0.15, alpha=0.015
2.4069574560620173
% TCN (m^2) @ t=197, gamma=0.15, alpha=0.015
0.2958556994651738
% TCTL (m^2) @ t=198, gamma=0.15, alpha=0.015
2.5293741090438235
% TCN (m^2) @ t=198, gamma=0.15, alpha=0.015
0.30400503485087726
% TCTL (m^2) @ t=199, gamma=0.15, alpha=0.015
2.657875894958875
% TCN (m^2) @ t=199, gamma=0.15, alpha=0.015
0.3115491142659374
% TCTL (m^2) @ t=200, gamma=0.15, alpha=0.015
2.792700061577908
% TCN (m^2) @ t=200, gamma=0.15, alpha=0.015
0.3184213943731838
% TCTL (m^2) @ t=0, gamma=0.15, alpha=0.0175
0.8999918492779917
% TCN (m^2) @ t=0, gamma=0.15, alpha=0.0175
4.6384710343931314E-4
% TCTL (m^2) @ t=1, gamma=0.15, alpha=0.0175
0.8845277462362631
% TCN (m^2) @ t=1, gamma=0.15, alpha=0.0175
5.216638639523848E-4
% TCTL (m^2) @ t=2, gamma=0.15, alpha=0.0175
0.8771730698078859
% TCN (m^2) @ t=2, gamma=0.15, alpha=0.0175
5.866896299512351E-4
% TCTL (m^2) @ t=3, gamma=0.15, alpha=0.0175
0.875881010736015
% TCN (m^2) @ t=3, gamma=0.15, alpha=0.0175
6.581881575913279E-4
% TCTL (m^2) @ t=4, gamma=0.15, alpha=0.0175
0.8808788492056439
% TCN (m^2) @ t=4, gamma=0.15, alpha=0.0175
7.380332669376853E-4
% TCTL (m^2) @ t=5, gamma=0.15, alpha=0.0175
0.8918811207647894
% TCN (m^2) @ t=5, gamma=0.15, alpha=0.0175
8.270505618750624E-4
% TCTL (m^2) @ t=6, gamma=0.15, alpha=0.0175
0.9084846920615606
% TCN (m^2) @ t=6, gamma=0.15, alpha=0.0175
9.25849700725673E-4
% TCTL (m^2) @ t=7, gamma=0.15, alpha=0.0175
0.9301964807246261
% TCN (m^2) @ t=7, gamma=0.15, alpha=0.0175
0.0010359367941654655
% TCTL (m^2) @ t=8, gamma=0.15, alpha=0.0175
0.9568258209617452
% TCN (m^2) @ t=8, gamma=0.15, alpha=0.0175
0.0011581176765884642
% TCTL (m^2) @ t=9, gamma=0.15, alpha=0.0175
0.9880797974783397
% TCN (m^2) @ t=9, gamma=0.15, alpha=0.0175
0.0012934970303704685
% TCTL (m^2) @ t=10, gamma=0.15, alpha=0.0175
1.0236096650800626
% TCN (m^2) @ t=10, gamma=0.15, alpha=0.0175
0.001443574207269218
% TCTL (m^2) @ t=11, gamma=0.15, alpha=0.0175
1.0633185680988924
% TCN (m^2) @ t=11, gamma=0.15, alpha=0.0175
0.0016098023004508016
% TCTL (m^2) @ t=12, gamma=0.15, alpha=0.0175
1.1070768840891705
% TCN (m^2) @ t=12, gamma=0.15, alpha=0.0175
0.0017938785657013452
% TCTL (m^2) @ t=13, gamma=0.15, alpha=0.0175
1.154718553915639
% TCN (m^2) @ t=13, gamma=0.15, alpha=0.0175
0.001997349017897567
% TCTL (m^2) @ t=14, gamma=0.15, alpha=0.0175
1.2062403286368588
% TCN (m^2) @ t=14, gamma=0.15, alpha=0.0175
0.002222074357978966
% TCTL (m^2) @ t=15, gamma=0.15, alpha=0.0175
1.2614905222570922
% TCN (m^2) @ t=15, gamma=0.15, alpha=0.0175
0.0024696527921153734
% TCTL (m^2) @ t=16, gamma=0.15, alpha=0.0175
1.3204013749138772
% TCN (m^2) @ t=16, gamma=0.15, alpha=0.0175
0.002741784560801367
% TCTL (m^2) @ t=17, gamma=0.15, alpha=0.0175
1.3832053919496814
% TCN (m^2) @ t=17, gamma=0.15, alpha=0.0175
0.0030403699070951536
% TCTL (m^2) @ t=18, gamma=0.15, alpha=0.0175
1.4497638560685036
% TCN (m^2) @ t=18, gamma=0.15, alpha=0.0175
0.003367062988760906
% TCTL (m^2) @ t=19, gamma=0.15, alpha=0.0175
1.5201474096342176
% TCN (m^2) @ t=19, gamma=0.15, alpha=0.0175
0.0037233475214728884
% TCTL (m^2) @ t=20, gamma=0.15, alpha=0.0175
1.594618026942552
% TCN (m^2) @ t=20, gamma=0.15, alpha=0.0175
0.004110183334188756
% TCTL (m^2) @ t=21, gamma=0.15, alpha=0.0175
1.6731387740657648
% TCN (m^2) @ t=21, gamma=0.15, alpha=0.0175
0.0045293486976507695
% TCTL (m^2) @ t=22, gamma=0.15, alpha=0.0175
1.7558851981357446
% TCN (m^2) @ t=22, gamma=0.15, alpha=0.0175
0.004981165945827178
% TCTL (m^2) @ t=23, gamma=0.15, alpha=0.0175
1.8430855754134594
% TCN (m^2) @ t=23, gamma=0.15, alpha=0.0175
0.005465394746469206
% TCTL (m^2) @ t=24, gamma=0.15, alpha=0.0175
1.9348060722362626
% TCN (m^2) @ t=24, gamma=0.15, alpha=0.0175
0.00598352462289536
% TCTL (m^2) @ t=25, gamma=0.15, alpha=0.0175
2.0314404848958745
% TCN (m^2) @ t=25, gamma=0.15, alpha=0.0175
0.0065337716498918
% TCTL (m^2) @ t=26, gamma=0.15, alpha=0.0175
2.1334012834873577
% TCN (m^2) @ t=26, gamma=0.15, alpha=0.0175
0.007114168309991254
% TCTL (m^2) @ t=27, gamma=0.15, alpha=0.0175
2.240999112367169
% TCN (m^2) @ t=27, gamma=0.15, alpha=0.0175
0.007723748189596686
% TCTL (m^2) @ t=28, gamma=0.15, alpha=0.0175