% Model:              MODEL_SC_3_0.15_II.mph
% Version:            COMSOL 5.6.0.401
% Date:               May 21 2022, 13:20
% Dimension:          0
% Nodes:              12462
% Expressions:        12462
% Description:        , 
% TCTL (m^2) @ t=0, gamma=0.19, alpha=0.015
0.8999992758457386
% TCN (m^2) @ t=0, gamma=0.19, alpha=0.015
4.638411031115809E-4
% TCTL (m^2) @ t=1, gamma=0.19, alpha=0.015
0.9023577571060717
% TCN (m^2) @ t=1, gamma=0.19, alpha=0.015
5.038540422471073E-4
% TCTL (m^2) @ t=2, gamma=0.19, alpha=0.015
0.9113540411224856
% TCN (m^2) @ t=2, gamma=0.19, alpha=0.015
5.457666957400808E-4
% TCTL (m^2) @ t=3, gamma=0.19, alpha=0.015
0.9267477416474479
% TCN (m^2) @ t=3, gamma=0.19, alpha=0.015
5.898242276843429E-4
% TCTL (m^2) @ t=4, gamma=0.19, alpha=0.015
0.9488337101055213
% TCN (m^2) @ t=4, gamma=0.19, alpha=0.015
6.363920755745184E-4
% TCTL (m^2) @ t=5, gamma=0.19, alpha=0.015
0.9776396004220465
% TCN (m^2) @ t=5, gamma=0.19, alpha=0.015
6.857333804845365E-4
% TCTL (m^2) @ t=6, gamma=0.19, alpha=0.015
1.0133312013449116
% TCN (m^2) @ t=6, gamma=0.19, alpha=0.015
7.381939821897055E-4
% TCTL (m^2) @ t=7, gamma=0.19, alpha=0.015
1.056138992390188
% TCN (m^2) @ t=7, gamma=0.19, alpha=0.015
7.940982520050547E-4
% TCTL (m^2) @ t=8, gamma=0.19, alpha=0.015
1.1063708446497555
% TCN (m^2) @ t=8, gamma=0.19, alpha=0.015
8.53818243767921E-4
% TCTL (m^2) @ t=9, gamma=0.19, alpha=0.015
1.1644012608522099
% TCN (m^2) @ t=9, gamma=0.19, alpha=0.015
9.176937690508813E-4
% TCTL (m^2) @ t=10, gamma=0.19, alpha=0.015
1.2306213996213184
% TCN (m^2) @ t=10, gamma=0.19, alpha=0.015
9.860832073081297E-4
% TCTL (m^2) @ t=11, gamma=0.19, alpha=0.015
1.3056126337705507
% TCN (m^2) @ t=11, gamma=0.19, alpha=0.015
0.001059362709065367
% TCTL (m^2) @ t=12, gamma=0.19, alpha=0.015
1.3899415902230492
% TCN (m^2) @ t=12, gamma=0.19, alpha=0.015
0.0011379080788079497
% TCTL (m^2) @ t=13, gamma=0.19, alpha=0.015
1.4843581568574886
% TCN (m^2) @ t=13, gamma=0.19, alpha=0.015
0.0012219710795474499
% TCTL (m^2) @ t=14, gamma=0.19, alpha=0.015
1.5896198032725013
% TCN (m^2) @ t=14, gamma=0.19, alpha=0.015
0.0013118212570665858
% TCTL (m^2) @ t=15, gamma=0.19, alpha=0.015
1.706633819390336
% TCN (m^2) @ t=15, gamma=0.19, alpha=0.015
0.0014074584293405946
% TCTL (m^2) @ t=16, gamma=0.19, alpha=0.015
1.8363313453464605
% TCN (m^2) @ t=16, gamma=0.19, alpha=0.015
0.001508892877378639
% TCTL (m^2) @ t=17, gamma=0.19, alpha=0.015
1.979820817670023
% TCN (m^2) @ t=17, gamma=0.19, alpha=0.015
0.0016157752902094275
% TCTL (m^2) @ t=18, gamma=0.19, alpha=0.015
2.138414568164305
% TCN (m^2) @ t=18, gamma=0.19, alpha=0.015
0.0017274407155535836
% TCTL (m^2) @ t=19, gamma=0.19, alpha=0.015
2.313330941016962
% TCN (m^2) @ t=19, gamma=0.19, alpha=0.015
0.001843270832918051
% TCTL (m^2) @ t=20, gamma=0.19, alpha=0.015
2.5059117521415146
% TCN (m^2) @ t=20, gamma=0.19, alpha=0.015
0.0019623817498976887
% TCTL (m^2) @ t=21, gamma=0.19, alpha=0.015
2.7176155887438846
% TCN (m^2) @ t=21, gamma=0.19, alpha=0.015
0.0020837270870283356
% TCTL (m^2) @ t=22, gamma=0.19, alpha=0.015
2.949973503580741
% TCN (m^2) @ t=22, gamma=0.19, alpha=0.015
0.002206092216055946
% TCTL (m^2) @ t=23, gamma=0.19, alpha=0.015
3.2047505327270605
% TCN (m^2) @ t=23, gamma=0.19, alpha=0.015
0.002327863153743931
% TCTL (m^2) @ t=24, gamma=0.19, alpha=0.015
3.483883187068769
% TCN (m^2) @ t=24, gamma=0.19, alpha=0.015
0.0024471315674844366
% TCTL (m^2) @ t=25, gamma=0.19, alpha=0.015
3.7896248253765226
% TCN (m^2) @ t=25, gamma=0.19, alpha=0.015
0.002561445793457331
% TCTL (m^2) @ t=26, gamma=0.19, alpha=0.015
4.124187598862295
% TCN (m^2) @ t=26, gamma=0.19, alpha=0.015
0.0026684393527313974
% TCTL (m^2) @ t=27, gamma=0.19, alpha=0.015
4.49008535075506
% TCN (m^2) @ t=27, gamma=0.19, alpha=0.015
0.0027656427579608256
% TCTL (m^2) @ t=28, gamma=0.19, alpha=0.015
4.889915889612198
% TCN (m^2) @ t=28, gamma=0.19, alpha=0.015
0.0028504682338073507
% TCTL (m^2) @ t=29, gamma=0.19, alpha=0.015
5.326636976327627
% TCN (m^2) @ t=29, gamma=0.19, alpha=0.015
0.0029200836471998948
% TCTL (m^2) @ t=30, gamma=0.19, alpha=0.015
5.803348893779262
% TCN (m^2) @ t=30, gamma=0.19, alpha=0.015
0.002971549672478424
% TCTL (m^2) @ t=31, gamma=0.19, alpha=0.015
6.32343384224507
% TCN (m^2) @ t=31, gamma=0.19, alpha=0.015
0.00300301281015333
% TCTL (m^2) @ t=32, gamma=0.19, alpha=0.015
6.89047635926113
% TCN (m^2) @ t=32, gamma=0.19, alpha=0.015
0.0030125972910775875
% TCTL (m^2) @ t=33, gamma=0.19, alpha=0.015
7.508230059154867
% TCN (m^2) @ t=33, gamma=0.19, alpha=0.015
0.0029967137275200995
% TCTL (m^2) @ t=34, gamma=0.19, alpha=0.015
8.180670637917698
% TCN (m^2) @ t=34, gamma=0.19, alpha=0.015
0.002951812874517847
% TCTL (m^2) @ t=35, gamma=0.19, alpha=0.015
8.915242044015788
% TCN (m^2) @ t=35, gamma=0.19, alpha=0.015
0.0028812145922324714
% TCTL (m^2) @ t=36, gamma=0.19, alpha=0.015
9.713459729910431
% TCN (m^2) @ t=36, gamma=0.19, alpha=0.015
0.0027875358473249305
% TCTL (m^2) @ t=37, gamma=0.19, alpha=0.015
10.579053788007668
% TCN (m^2) @ t=37, gamma=0.19, alpha=0.015
0.0026685526276589745
% TCTL (m^2) @ t=38, gamma=0.19, alpha=0.015
11.514328386060837
% TCN (m^2) @ t=38, gamma=0.19, alpha=0.015
0.0025239835004522678
% TCTL (m^2) @ t=39, gamma=0.19, alpha=0.015
12.523180273356298
% TCN (m^2) @ t=39, gamma=0.19, alpha=0.015
0.002360184946755357
% TCTL (m^2) @ t=40, gamma=0.19, alpha=0.015
13.605052112852325
% TCN (m^2) @ t=40, gamma=0.19, alpha=0.015
0.0021774174596622124
% TCTL (m^2) @ t=41, gamma=0.19, alpha=0.015
14.755308610516611
% TCN (m^2) @ t=41, gamma=0.19, alpha=0.015
0.0019849095265224736
% TCTL (m^2) @ t=42, gamma=0.19, alpha=0.015
15.969285279068206
% TCN (m^2) @ t=42, gamma=0.19, alpha=0.015
0.0017821495206331002
% TCTL (m^2) @ t=43, gamma=0.19, alpha=0.015
17.22641447407912
% TCN (m^2) @ t=43, gamma=0.19, alpha=0.015
0.001577657467006372
% TCTL (m^2) @ t=44, gamma=0.19, alpha=0.015
18.518117341575838
% TCN (m^2) @ t=44, gamma=0.19, alpha=0.015
0.0013714578058739346
% TCTL (m^2) @ t=45, gamma=0.19, alpha=0.015
19.80757617188576
% TCN (m^2) @ t=45, gamma=0.19, alpha=0.015
0.001170631207099836
% TCTL (m^2) @ t=46, gamma=0.19, alpha=0.015
21.025154260268764
% TCN (m^2) @ t=46, gamma=0.19, alpha=0.015
9.791212206515187E-4
% TCTL (m^2) @ t=47, gamma=0.19, alpha=0.015
22.087236698289512
% TCN (m^2) @ t=47, gamma=0.19, alpha=0.015
8.02319754078062E-4
% TCTL (m^2) @ t=48, gamma=0.19, alpha=0.015
22.860277378827966
% TCN (m^2) @ t=48, gamma=0.19, alpha=0.015
6.428406139288516E-4
% TCTL (m^2) @ t=49, gamma=0.19, alpha=0.015
23.24415556778458
% TCN (m^2) @ t=49, gamma=0.19, alpha=0.015
5.042873660344547E-4
% TCTL (m^2) @ t=50, gamma=0.19, alpha=0.015
23.1577711177979
% TCN (m^2) @ t=50, gamma=0.19, alpha=0.015
3.862270003976583E-4
% TCTL (m^2) @ t=51, gamma=0.19, alpha=0.015
22.555917790866197
% TCN (m^2) @ t=51, gamma=0.19, alpha=0.015
2.9006025703663164E-4
% TCTL (m^2) @ t=52, gamma=0.19, alpha=0.015
21.56800561084211
% TCN (m^2) @ t=52, gamma=0.19, alpha=0.015
2.1290992021805915E-4
% TCTL (m^2) @ t=53, gamma=0.19, alpha=0.015
20.26088876342481
% TCN (m^2) @ t=53, gamma=0.19, alpha=0.015
1.5289665548676488E-4
% TCTL (m^2) @ t=54, gamma=0.19, alpha=0.015
18.72655735951457
% TCN (m^2) @ t=54, gamma=0.19, alpha=0.015
1.0779702785799442E-4
% TCTL (m^2) @ t=55, gamma=0.19, alpha=0.015
17.17488588863482
% TCN (m^2) @ t=55, gamma=0.19, alpha=0.015
7.396038479732724E-5
% TCTL (m^2) @ t=56, gamma=0.19, alpha=0.015
15.627801534514273
% TCN (m^2) @ t=56, gamma=0.19, alpha=0.015
5.0414239077441914E-5
% TCTL (m^2) @ t=57, gamma=0.19, alpha=0.015
14.17335742010907
% TCN (m^2) @ t=57, gamma=0.19, alpha=0.015
3.436029265034763E-5
% TCTL (m^2) @ t=58, gamma=0.19, alpha=0.015
12.838389075284725
% TCN (m^2) @ t=58, gamma=0.19, alpha=0.015
2.351385528081489E-5
% TCTL (m^2) @ t=59, gamma=0.19, alpha=0.015
11.618698789963625
% TCN (m^2) @ t=59, gamma=0.19, alpha=0.015
1.600250272841807E-5
% TCTL (m^2) @ t=60, gamma=0.19, alpha=0.015
10.510986721549983
% TCN (m^2) @ t=60, gamma=0.19, alpha=0.015
1.0975621952269027E-5
% TCTL (m^2) @ t=61, gamma=0.19, alpha=0.015
9.507871000168478
% TCN (m^2) @ t=61, gamma=0.19, alpha=0.015
7.70042600644586E-6
% TCTL (m^2) @ t=62, gamma=0.19, alpha=0.015
8.599711646405705
% TCN (m^2) @ t=62, gamma=0.19, alpha=0.015
5.498824690315497E-6
% TCTL (m^2) @ t=63, gamma=0.19, alpha=0.015
7.779655310742658
% TCN (m^2) @ t=63, gamma=0.19, alpha=0.015
4.126794913908844E-6
% TCTL (m^2) @ t=64, gamma=0.19, alpha=0.015
7.039523167218364
% TCN (m^2) @ t=64, gamma=0.19, alpha=0.015
3.275776300887069E-6
% TCTL (m^2) @ t=65, gamma=0.19, alpha=0.015
6.370031651849698
% TCN (m^2) @ t=65, gamma=0.19, alpha=0.015
2.6797692378475825E-6
% TCTL (m^2) @ t=66, gamma=0.19, alpha=0.015
5.763790961435007
% TCN (m^2) @ t=66, gamma=0.19, alpha=0.015
2.2339434026861285E-6
% TCTL (m^2) @ t=67, gamma=0.19, alpha=0.015
5.213901723979491
% TCN (m^2) @ t=67, gamma=0.19, alpha=0.015
1.8872686592987757E-6
% TCTL (m^2) @ t=68, gamma=0.19, alpha=0.015
4.7157667683037605
% TCN (m^2) @ t=68, gamma=0.19, alpha=0.015
1.6266289844736944E-6
% TCTL (m^2) @ t=69, gamma=0.19, alpha=0.015
4.264127006086186
% TCN (m^2) @ t=69, gamma=0.19, alpha=0.015
1.4335057096985339E-6
% TCTL (m^2) @ t=70, gamma=0.19, alpha=0.015
3.8556115557051953
% TCN (m^2) @ t=70, gamma=0.19, alpha=0.015
1.296574107033956E-6
% TCTL (m^2) @ t=71, gamma=0.19, alpha=0.015
3.484474539911794
% TCN (m^2) @ t=71, gamma=0.19, alpha=0.015
1.1969587070348168E-6
% TCTL (m^2) @ t=72, gamma=0.19, alpha=0.015
3.148430245010837
% TCN (m^2) @ t=72, gamma=0.19, alpha=0.015
1.1326979084580775E-6
% TCTL (m^2) @ t=73, gamma=0.19, alpha=0.015
2.8452937876426287
% TCN (m^2) @ t=73, gamma=0.19, alpha=0.015
1.0999277105543197E-6
% TCTL (m^2) @ t=74, gamma=0.19, alpha=0.015
2.57052851502999
% TCN (m^2) @ t=74, gamma=0.19, alpha=0.015
1.0916389630127877E-6
% TCTL (m^2) @ t=75, gamma=0.19, alpha=0.015
2.323357876378401
% TCN (m^2) @ t=75, gamma=0.19, alpha=0.015
1.1092677745476749E-6
% TCTL (m^2) @ t=76, gamma=0.19, alpha=0.015
2.1007853345595837
% TCN (m^2) @ t=76, gamma=0.19, alpha=0.015
1.1516848287991867E-6
% TCTL (m^2) @ t=77, gamma=0.19, alpha=0.015
1.9010076737712076
% TCN (m^2) @ t=77, gamma=0.19, alpha=0.015
1.2182105409603966E-6
% TCTL (m^2) @ t=78, gamma=0.19, alpha=0.015
1.7212485781461688
% TCN (m^2) @ t=78, gamma=0.19, alpha=0.015
1.3101847305676218E-6
% TCTL (m^2) @ t=79, gamma=0.19, alpha=0.015
1.5588555297295024
% TCN (m^2) @ t=79, gamma=0.19, alpha=0.015
1.4285202354536562E-6
% TCTL (m^2) @ t=80, gamma=0.19, alpha=0.015
1.4115759954919573
% TCN (m^2) @ t=80, gamma=0.19, alpha=0.015
1.5727503367044212E-6
% TCTL (m^2) @ t=81, gamma=0.19, alpha=0.015
1.2785112306854551
% TCN (m^2) @ t=81, gamma=0.19, alpha=0.015
1.750052101603539E-6
% TCTL (m^2) @ t=82, gamma=0.19, alpha=0.015
1.1586157524229135
% TCN (m^2) @ t=82, gamma=0.19, alpha=0.015
1.966938894231603E-6
% TCTL (m^2) @ t=83, gamma=0.19, alpha=0.015
1.0494357675893888
% TCN (m^2) @ t=83, gamma=0.19, alpha=0.015
2.2235542281620134E-6
% TCTL (m^2) @ t=84, gamma=0.19, alpha=0.015
0.9504124487768086
% TCN (m^2) @ t=84, gamma=0.19, alpha=0.015
2.5330619139347446E-6
% TCTL (m^2) @ t=85, gamma=0.19, alpha=0.015
0.861236565976121
% TCN (m^2) @ t=85, gamma=0.19, alpha=0.015
2.9106394365365747E-6
% TCTL (m^2) @ t=86, gamma=0.19, alpha=0.015
0.7800175273962683
% TCN (m^2) @ t=86, gamma=0.19, alpha=0.015
3.3587063442776767E-6
% TCTL (m^2) @ t=87, gamma=0.19, alpha=0.015
0.7062422966182976
% TCN (m^2) @ t=87, gamma=0.19, alpha=0.015
3.898205202235378E-6
% TCTL (m^2) @ t=88, gamma=0.19, alpha=0.015
0.639803845919852
% TCN (m^2) @ t=88, gamma=0.19, alpha=0.015
4.557546777795155E-6
% TCTL (m^2) @ t=89, gamma=0.19, alpha=0.015
0.5793805668259178
% TCN (m^2) @ t=89, gamma=0.19, alpha=0.015
5.342800605614113E-6
% TCTL (m^2) @ t=90, gamma=0.19, alpha=0.015
0.524395966647237
% TCN (m^2) @ t=90, gamma=0.19, alpha=0.015
6.286824551015538E-6
% TCTL (m^2) @ t=91, gamma=0.19, alpha=0.015
0.4746930481367418
% TCN (m^2) @ t=91, gamma=0.19, alpha=0.015
7.450634459771921E-6
% TCTL (m^2) @ t=92, gamma=0.19, alpha=0.015
0.4296137297848154
% TCN (m^2) @ t=92, gamma=0.19, alpha=0.015
8.86161167427599E-6
% TCTL (m^2) @ t=93, gamma=0.19, alpha=0.015
0.3887435292054071
% TCN (m^2) @ t=93, gamma=0.19, alpha=0.015
1.0570324010489307E-5
% TCTL (m^2) @ t=94, gamma=0.19, alpha=0.015
0.35167223332049946
% TCN (m^2) @ t=94, gamma=0.19, alpha=0.015
1.2643084497457943E-5
% TCTL (m^2) @ t=95, gamma=0.19, alpha=0.015
0.3181334329095055
% TCN (m^2) @ t=95, gamma=0.19, alpha=0.015
1.5138824444027645E-5
% TCTL (m^2) @ t=96, gamma=0.19, alpha=0.015
0.28783732586095023
% TCN (m^2) @ t=96, gamma=0.19, alpha=0.015
1.813819482761444E-5
% TCTL (m^2) @ t=97, gamma=0.19, alpha=0.015
0.2603723990117699
% TCN (m^2) @ t=97, gamma=0.19, alpha=0.015
2.1762978153514654E-5
% TCTL (m^2) @ t=98, gamma=0.19, alpha=0.015
0.23557844235047298
% TCN (m^2) @ t=98, gamma=0.19, alpha=0.015
2.6105080823678183E-5
% TCTL (m^2) @ t=99, gamma=0.19, alpha=0.015
0.2132377752718477
% TCN (m^2) @ t=99, gamma=0.19, alpha=0.015
3.129610794728125E-5
% TCTL (m^2) @ t=100, gamma=0.19, alpha=0.015
0.1930508282590459
% TCN (m^2) @ t=100, gamma=0.19, alpha=0.015
3.75521835736057E-5
% TCTL (m^2) @ t=101, gamma=0.19, alpha=0.015
0.17487674901170966
% TCN (m^2) @ t=101, gamma=0.19, alpha=0.015
4.502669142197679E-5
% TCTL (m^2) @ t=102, gamma=0.19, alpha=0.015
0.15855050079702462
% TCN (m^2) @ t=102, gamma=0.19, alpha=0.015
5.393544142892653E-5
% TCTL (m^2) @ t=103, gamma=0.19, alpha=0.015
0.14388491163018843
% TCN (m^2) @ t=103, gamma=0.19, alpha=0.015
6.463751723563527E-5
% TCTL (m^2) @ t=104, gamma=0.19, alpha=0.015
0.1307643683123991
% TCN (m^2) @ t=104, gamma=0.19, alpha=0.015
7.739170237338064E-5
% TCTL (m^2) @ t=105, gamma=0.19, alpha=0.015
0.11907743585678832
% TCN (m^2) @ t=105, gamma=0.19, alpha=0.015
9.254556532892815E-5
% TCTL (m^2) @ t=106, gamma=0.19, alpha=0.015
0.1087246330358207
% TCN (m^2) @ t=106, gamma=0.19, alpha=0.015
1.1067227812366144E-4
% TCTL (m^2) @ t=107, gamma=0.19, alpha=0.015
0.099635971433172
% TCN (m^2) @ t=107, gamma=0.19, alpha=0.015
1.3219619122524745E-4
% TCTL (m^2) @ t=108, gamma=0.19, alpha=0.015
0.09175831652513479
% TCN (m^2) @ t=108, gamma=0.19, alpha=0.015
1.5766321897345064E-4
% TCTL (m^2) @ t=109, gamma=0.19, alpha=0.015
0.0850453589768113
% TCN (m^2) @ t=109, gamma=0.19, alpha=0.015
1.8797052091680863E-4
% TCTL (m^2) @ t=110, gamma=0.19, alpha=0.015
0.07948307296206439
% TCN (m^2) @ t=110, gamma=0.19, alpha=0.015
2.2379234577791243E-4
% TCTL (m^2) @ t=111, gamma=0.19, alpha=0.015
0.07507243281836004
% TCN (m^2) @ t=111, gamma=0.19, alpha=0.015
2.659698190333472E-4
% TCTL (m^2) @ t=112, gamma=0.19, alpha=0.015
0.07177933558366709
% TCN (m^2) @ t=112, gamma=0.19, alpha=0.015
3.1593219111653525E-4
% TCTL (m^2) @ t=113, gamma=0.19, alpha=0.015
0.06962303073389765
% TCN (m^2) @ t=113, gamma=0.19, alpha=0.015
3.748586500516467E-4
% TCTL (m^2) @ t=114, gamma=0.19, alpha=0.015
0.06861688617047979
% TCN (m^2) @ t=114, gamma=0.19, alpha=0.015
4.442397751262807E-4
% TCTL (m^2) @ t=115, gamma=0.19, alpha=0.015
0.06871926449779733
% TCN (m^2) @ t=115, gamma=0.19, alpha=0.015
5.257765563006862E-4
% TCTL (m^2) @ t=116, gamma=0.19, alpha=0.015
0.06992284130371453
% TCN (m^2) @ t=116, gamma=0.19, alpha=0.015
6.213873891107884E-4
% TCTL (m^2) @ t=117, gamma=0.19, alpha=0.015
0.07220014084911075
% TCN (m^2) @ t=117, gamma=0.19, alpha=0.015
7.332283856584035E-4
% TCTL (m^2) @ t=118, gamma=0.19, alpha=0.015
0.07552216225452862
% TCN (m^2) @ t=118, gamma=0.19, alpha=0.015
8.638165250778457E-4
% TCTL (m^2) @ t=119, gamma=0.19, alpha=0.015
0.07983380928649746
% TCN (m^2) @ t=119, gamma=0.19, alpha=0.015
0.0010158989732730393
% TCTL (m^2) @ t=120, gamma=0.19, alpha=0.015
0.08506080085961001
% TCN (m^2) @ t=120, gamma=0.19, alpha=0.015
0.0011925368114395164
% TCTL (m^2) @ t=121, gamma=0.19, alpha=0.015
0.09122474987156158
% TCN (m^2) @ t=121, gamma=0.19, alpha=0.015
0.0013973415916410032
% TCTL (m^2) @ t=122, gamma=0.19, alpha=0.015
0.0982984563849198
% TCN (m^2) @ t=122, gamma=0.19, alpha=0.015
0.0016342373047265792
% TCTL (m^2) @ t=123, gamma=0.19, alpha=0.015
0.10624360306102416
% TCN (m^2) @ t=123, gamma=0.19, alpha=0.015
0.0019075532276426142
% TCTL (m^2) @ t=124, gamma=0.19, alpha=0.015
0.11516904144698549
% TCN (m^2) @ t=124, gamma=0.19, alpha=0.015
0.0022224635631861492
% TCTL (m^2) @ t=125, gamma=0.19, alpha=0.015
0.1251445941414629
% TCN (m^2) @ t=125, gamma=0.19, alpha=0.015
0.002584354742003296
% TCTL (m^2) @ t=126, gamma=0.19, alpha=0.015
0.13622189951745017
% TCN (m^2) @ t=126, gamma=0.19, alpha=0.015
0.0029989563880832137
% TCTL (m^2) @ t=127, gamma=0.19, alpha=0.015
0.14847792328587506
% TCN (m^2) @ t=127, gamma=0.19, alpha=0.015
0.003472970173724332
% TCTL (m^2) @ t=128, gamma=0.19, alpha=0.015
0.16200987130749436
% TCN (m^2) @ t=128, gamma=0.19, alpha=0.015
0.004013497145912088
% TCTL (m^2) @ t=129, gamma=0.19, alpha=0.015
0.1769398342396198
% TCN (m^2) @ t=129, gamma=0.19, alpha=0.015
0.004627914590625929
% TCTL (m^2) @ t=130, gamma=0.19, alpha=0.015
0.1933725425379637
% TCN (m^2) @ t=130, gamma=0.19, alpha=0.015
0.005324743548867752
% TCTL (m^2) @ t=131, gamma=0.19, alpha=0.015
0.21142464722550275
% TCN (m^2) @ t=131, gamma=0.19, alpha=0.015
0.006113087455863776
% TCTL (m^2) @ t=132, gamma=0.19, alpha=0.015
0.23124628544087827
% TCN (m^2) @ t=132, gamma=0.19, alpha=0.015
0.007002245801918999
% TCTL (m^2) @ t=133, gamma=0.19, alpha=0.015
0.25298086193244895
% TCN (m^2) @ t=133, gamma=0.19, alpha=0.015
0.008002397211120008
% TCTL (m^2) @ t=134, gamma=0.19, alpha=0.015
0.27677957554876864
% TCN (m^2) @ t=134, gamma=0.19, alpha=0.015
0.009124360151424885
% TCTL (m^2) @ t=135, gamma=0.19, alpha=0.015
0.3028129929766996
% TCN (m^2) @ t=135, gamma=0.19, alpha=0.015
0.010379433962958857
% TCTL (m^2) @ t=136, gamma=0.19, alpha=0.015
0.3312768816270601
% TCN (m^2) @ t=136, gamma=0.19, alpha=0.015
0.01177891784166778
% TCTL (m^2) @ t=137, gamma=0.19, alpha=0.015
0.3623921498770269
% TCN (m^2) @ t=137, gamma=0.19, alpha=0.015
0.013334192108106806
% TCTL (m^2) @ t=138, gamma=0.19, alpha=0.015
0.3963677598198806
% TCN (m^2) @ t=138, gamma=0.19, alpha=0.015
0.015058020543274896
% TCTL (m^2) @ t=139, gamma=0.19, alpha=0.015
0.43346817021607237
% TCN (m^2) @ t=139, gamma=0.19, alpha=0.015
0.016961843864833126
% TCTL (m^2) @ t=140, gamma=0.19, alpha=0.015
0.4740115527055717
% TCN (m^2) @ t=140, gamma=0.19, alpha=0.015
0.01905575678243327
% TCTL (m^2) @ t=141, gamma=0.19, alpha=0.015
0.5182796997118323
% TCN (m^2) @ t=141, gamma=0.19, alpha=0.015
0.021352632624785324
% TCTL (m^2) @ t=142, gamma=0.19, alpha=0.015
0.5666423272117762
% TCN (m^2) @ t=142, gamma=0.19, alpha=0.015
0.023862405772080188
% TCTL (m^2) @ t=143, gamma=0.19, alpha=0.015
0.6195955400675767
% TCN (m^2) @ t=143, gamma=0.19, alpha=0.015
0.026590275710549338
% TCTL (m^2) @ t=144, gamma=0.19, alpha=0.015
0.6775863979855191
% TCN (m^2) @ t=144, gamma=0.19, alpha=0.015
0.029544841919348183
% TCTL (m^2) @ t=145, gamma=0.19, alpha=0.015
0.7411297057141856
% TCN (m^2) @ t=145, gamma=0.19, alpha=0.015
0.03273149067879403
% TCTL (m^2) @ t=146, gamma=0.19, alpha=0.015
0.8107183230594092
% TCN (m^2) @ t=146, gamma=0.19, alpha=0.015
0.03615394284876876
% TCTL (m^2) @ t=147, gamma=0.19, alpha=0.015
0.8869738203375769
% TCN (m^2) @ t=147, gamma=0.19, alpha=0.015
0.0398136272824019
% TCTL (m^2) @ t=148, gamma=0.19, alpha=0.015
0.9705226845368253
% TCN (m^2) @ t=148, gamma=0.19, alpha=0.015
0.04370965722940151
% TCTL (m^2) @ t=149, gamma=0.19, alpha=0.015
1.061973267118856
% TCN (m^2) @ t=149, gamma=0.19, alpha=0.015
0.047838219967340015
% TCTL (m^2) @ t=150, gamma=0.19, alpha=0.015
1.1620280350815575
% TCN (m^2) @ t=150, gamma=0.19, alpha=0.015
0.05219301547644047
% TCTL (m^2) @ t=151, gamma=0.19, alpha=0.015
1.271419567871094
% TCN (m^2) @ t=151, gamma=0.19, alpha=0.015
0.05676394150217276
% TCTL (m^2) @ t=152, gamma=0.19, alpha=0.015
1.3910276263031849
% TCN (m^2) @ t=152, gamma=0.19, alpha=0.015
0.06153379591375448
% TCTL (m^2) @ t=153, gamma=0.19, alpha=0.015
1.5216836400467242
% TCN (m^2) @ t=153, gamma=0.19, alpha=0.015
0.06648427357049994
% TCTL (m^2) @ t=154, gamma=0.19, alpha=0.015
1.6643325720894855
% TCN (m^2) @ t=154, gamma=0.19, alpha=0.015
0.07159014120528971
% TCTL (m^2) @ t=155, gamma=0.19, alpha=0.015
1.8201957510703253
% TCN (m^2) @ t=155, gamma=0.19, alpha=0.015
0.07681068307652604
% TCTL (m^2) @ t=156, gamma=0.19, alpha=0.015
1.9904191274218548
% TCN (m^2) @ t=156, gamma=0.19, alpha=0.015
0.08210630400046649
% TCTL (m^2) @ t=157, gamma=0.19, alpha=0.015
2.1763493996422394
% TCN (m^2) @ t=157, gamma=0.19, alpha=0.015
0.08742605941926107
% TCTL (m^2) @ t=158, gamma=0.19, alpha=0.015
2.3798506003620092
% TCN (m^2) @ t=158, gamma=0.19, alpha=0.015
0.09270948497516601
% TCTL (m^2) @ t=159, gamma=0.19, alpha=0.015
2.6026788638844467
% TCN (m^2) @ t=159, gamma=0.19, alpha=0.015
0.09788622487976509
% TCTL (m^2) @ t=160, gamma=0.19, alpha=0.015
2.8469216490259885
% TCN (m^2) @ t=160, gamma=0.19, alpha=0.015
0.10287551963082758
% TCTL (m^2) @ t=161, gamma=0.19, alpha=0.015
3.114121210865083
% TCN (m^2) @ t=161, gamma=0.19, alpha=0.015
0.10761467495433145
% TCTL (m^2) @ t=162, gamma=0.19, alpha=0.015
3.406633655100751
% TCN (m^2) @ t=162, gamma=0.19, alpha=0.015
0.11200957090387861
% TCTL (m^2) @ t=163, gamma=0.19, alpha=0.015
3.7267408850953503
% TCN (m^2) @ t=163, gamma=0.19, alpha=0.015
0.11596715907870148
% TCTL (m^2) @ t=164, gamma=0.19, alpha=0.015
4.077227443199607
% TCN (m^2) @ t=164, gamma=0.19, alpha=0.015
0.11939076173895649
% TCTL (m^2) @ t=165, gamma=0.19, alpha=0.015
4.460715515458257
% TCN (m^2) @ t=165, gamma=0.19, alpha=0.015
0.12217415106348227
% TCTL (m^2) @ t=166, gamma=0.19, alpha=0.015
4.880077840811211
% TCN (m^2) @ t=166, gamma=0.19, alpha=0.015
0.12420548141138349
% TCTL (m^2) @ t=167, gamma=0.19, alpha=0.015
5.339165201659128
% TCN (m^2) @ t=167, gamma=0.19, alpha=0.015
0.12545397218183305
% TCTL (m^2) @ t=168, gamma=0.19, alpha=0.015
5.841434205549813
% TCN (m^2) @ t=168, gamma=0.19, alpha=0.015
0.1258214347279725
% TCTL (m^2) @ t=169, gamma=0.19, alpha=0.015
6.390670201493533
% TCN (m^2) @ t=169, gamma=0.19, alpha=0.015
0.12522086295073925
% TCTL (m^2) @ t=170, gamma=0.19, alpha=0.015
6.991810819616957
% TCN (m^2) @ t=170, gamma=0.19, alpha=0.015
0.12364804548166507
% TCTL (m^2) @ t=171, gamma=0.19, alpha=0.015
7.649554806205848
% TCN (m^2) @ t=171, gamma=0.19, alpha=0.015
0.12105822927090937
% TCTL (m^2) @ t=172, gamma=0.19, alpha=0.015
8.368903138191122
% TCN (m^2) @ t=172, gamma=0.19, alpha=0.015
0.1174137122961589
% TCTL (m^2) @ t=173, gamma=0.19, alpha=0.015
9.157804678216078
% TCN (m^2) @ t=173, gamma=0.19, alpha=0.015
0.11284472985187566
% TCTL (m^2) @ t=174, gamma=0.19, alpha=0.015
10.02176027092691
% TCN (m^2) @ t=174, gamma=0.19, alpha=0.015
0.10735451309405675
% TCTL (m^2) @ t=175, gamma=0.19, alpha=0.015
10.965974869377982
% TCN (m^2) @ t=175, gamma=0.19, alpha=0.015
0.10092544403216322
% TCTL (m^2) @ t=176, gamma=0.19, alpha=0.015
12.00110398123852
% TCN (m^2) @ t=176, gamma=0.19, alpha=0.015
0.09382441021750693
% TCTL (m^2) @ t=177, gamma=0.19, alpha=0.015
13.13503077107627
% TCN (m^2) @ t=177, gamma=0.19, alpha=0.015
0.08617472291049458
% TCTL (m^2) @ t=178, gamma=0.19, alpha=0.015
14.373849951729817
% TCN (m^2) @ t=178, gamma=0.19, alpha=0.015
0.07800707162296712
% TCTL (m^2) @ t=179, gamma=0.19, alpha=0.015
15.731273891532549
% TCN (m^2) @ t=179, gamma=0.19, alpha=0.015
0.06959868609779127
% TCTL (m^2) @ t=180, gamma=0.19, alpha=0.015
17.218689270881274
% TCN (m^2) @ t=180, gamma=0.19, alpha=0.015
0.061159758431361566
% TCTL (m^2) @ t=181, gamma=0.19, alpha=0.015
18.843645881209003
% TCN (m^2) @ t=181, gamma=0.19, alpha=0.015
0.052789882904314106
% TCTL (m^2) @ t=182, gamma=0.19, alpha=0.015
20.6208178182849
% TCN (m^2) @ t=182, gamma=0.19, alpha=0.015
0.044683422787151116
% TCTL (m^2) @ t=183, gamma=0.19, alpha=0.015
22.564238355929557
% TCN (m^2) @ t=183, gamma=0.19, alpha=0.015
0.037030134213758684
% TCTL (m^2) @ t=184, gamma=0.19, alpha=0.015
24.692774544124262
% TCN (m^2) @ t=184, gamma=0.19, alpha=0.015
0.03003328302668349
% TCTL (m^2) @ t=185, gamma=0.19, alpha=0.015
27.01778143524471
% TCN (m^2) @ t=185, gamma=0.19, alpha=0.015
0.023755074984266003
% TCTL (m^2) @ t=186, gamma=0.19, alpha=0.015
29.58291564630403
% TCN (m^2) @ t=186, gamma=0.19, alpha=0.015
0.01836248636775805
% TCTL (m^2) @ t=187, gamma=0.19, alpha=0.015
32.388324269037184
% TCN (m^2) @ t=187, gamma=0.19, alpha=0.015
0.01379176928033856
% TCTL (m^2) @ t=188, gamma=0.19, alpha=0.015
35.44713642816917
% TCN (m^2) @ t=188, gamma=0.19, alpha=0.015
0.010019961142854344
% TCTL (m^2) @ t=189, gamma=0.19, alpha=0.015
38.78711756414121
% TCN (m^2) @ t=189, gamma=0.19, alpha=0.015
0.006999941983798337
% TCTL (m^2) @ t=190, gamma=0.19, alpha=0.015
42.393427722516265
% TCN (m^2) @ t=190, gamma=0.19, alpha=0.015
0.004667529628840907
% TCTL (m^2) @ t=191, gamma=0.19, alpha=0.015
46.23603563755942
% TCN (m^2) @ t=191, gamma=0.19, alpha=0.015
0.0029427009974728998
% TCTL (m^2) @ t=192, gamma=0.19, alpha=0.015
50.07835323936786
% TCN (m^2) @ t=192, gamma=0.19, alpha=0.015
0.0016935972856986386
% TCTL (m^2) @ t=193, gamma=0.19, alpha=0.015
53.48674592152258
% TCN (m^2) @ t=193, gamma=0.19, alpha=0.015
9.421456674518255E-4
% TCTL (m^2) @ t=194, gamma=0.19, alpha=0.015
55.38472750039149
% TCN (m^2) @ t=194, gamma=0.19, alpha=0.015
5.454574383807173E-4
% TCTL (m^2) @ t=195, gamma=0.19, alpha=0.015
54.7262084319904
% TCN (m^2) @ t=195, gamma=0.19, alpha=0.015
3.032446026137924E-4
% TCTL (m^2) @ t=196, gamma=0.19, alpha=0.015
51.639280956397876
% TCN (m^2) @ t=196, gamma=0.19, alpha=0.015
1.5859826558415086E-4
% TCTL (m^2) @ t=197, gamma=0.19, alpha=0.015
47.340880904911145
% TCN (m^2) @ t=197, gamma=0.19, alpha=0.015
7.953866018246754E-5
% TCTL (m^2) @ t=198, gamma=0.19, alpha=0.015
42.92046107847025
% TCN (m^2) @ t=198, gamma=0.19, alpha=0.015
3.862902823866418E-5
% TCTL (m^2) @ t=199, gamma=0.19, alpha=0.015
38.84414451137137
% TCN (m^2) @ t=199, gamma=0.19, alpha=0.015
1.745454528185775E-5
% TCTL (m^2) @ t=200, gamma=0.19, alpha=0.015
35.211613736458915
% TCN (m^2) @ t=200, gamma=0.19, alpha=0.015
8.354691871598172E-6
% TCTL (m^2) @ t=0, gamma=0.19, alpha=0.0175
0.8999992761771931
% TCN (m^2) @ t=0, gamma=0.19, alpha=0.0175
4.6384710326474856E-4
% TCTL (m^2) @ t=1, gamma=0.19, alpha=0.0175
0.9039900804643048
% TCN (m^2) @ t=1, gamma=0.19, alpha=0.0175
5.205927237339219E-4
% TCTL (m^2) @ t=2, gamma=0.19, alpha=0.0175
0.917218690455527
% TCN (m^2) @ t=2, gamma=0.19, alpha=0.0175
5.820514343624804E-4
% TCTL (m^2) @ t=3, gamma=0.19, alpha=0.0175
0.9392567449887618
% TCN (m^2) @ t=3, gamma=0.19, alpha=0.0175
6.484358435075497E-4
% TCTL (m^2) @ t=4, gamma=0.19, alpha=0.0175
0.9704086991207037
% TCN (m^2) @ t=4, gamma=0.19, alpha=0.0175
7.202952093862936E-4
% TCTL (m^2) @ t=5, gamma=0.19, alpha=0.0175
1.0105989306255485
% TCN (m^2) @ t=5, gamma=0.19, alpha=0.0175
7.9796431613853E-4
% TCTL (m^2) @ t=6, gamma=0.19, alpha=0.0175
1.0599224196738026
% TCN (m^2) @ t=6, gamma=0.19, alpha=0.0175
8.819561675826035E-4
% TCTL (m^2) @ t=7, gamma=0.19, alpha=0.0175
1.118573732701238
% TCN (m^2) @ t=7, gamma=0.19, alpha=0.0175
9.728164699952058E-4
% TCTL (m^2) @ t=8, gamma=0.19, alpha=0.0175
1.1868369157108114
% TCN (m^2) @ t=8, gamma=0.19, alpha=0.0175
0.0010712053811810943
% TCTL (m^2) @ t=9, gamma=0.19, alpha=0.0175
1.2651022189852774
% TCN (m^2) @ t=9, gamma=0.19, alpha=0.0175
0.0011777721158460308
% TCTL (m^2) @ t=10, gamma=0.19, alpha=0.0175
1.3537758168105174
% TCN (m^2) @ t=10, gamma=0.19, alpha=0.0175
0.0012931993397162851
% TCTL (m^2) @ t=11, gamma=0.19, alpha=0.0175
1.45352837076104
% TCN (m^2) @ t=11, gamma=0.19, alpha=0.0175
0.001418301406695769
% TCTL (m^2) @ t=12, gamma=0.19, alpha=0.0175
1.5650091819303096
% TCN (m^2) @ t=12, gamma=0.19, alpha=0.0175
0.0015538832168775375
% TCTL (m^2) @ t=13, gamma=0.19, alpha=0.0175
1.6891133830769323
% TCN (m^2) @ t=13, gamma=0.19, alpha=0.0175
0.0017005545399054064
% TCTL (m^2) @ t=14, gamma=0.19, alpha=0.0175
1.8267471164887388
% TCN (m^2) @ t=14, gamma=0.19, alpha=0.0175
0.0018589686330702593
% TCTL (m^2) @ t=15, gamma=0.19, alpha=0.0175
1.9790177575583754
% TCN (m^2) @ t=15, gamma=0.19, alpha=0.0175
0.002029202836501302
% TCTL (m^2) @ t=16, gamma=0.19, alpha=0.0175
2.147064854788707
% TCN (m^2) @ t=16, gamma=0.19, alpha=0.0175
0.002211372925932147
% TCTL (m^2) @ t=17, gamma=0.19, alpha=0.0175
2.3323278228845763
% TCN (m^2) @ t=17, gamma=0.19, alpha=0.0175
0.00240484059226559
% TCTL (m^2) @ t=18, gamma=0.19, alpha=0.0175
2.536551278011262
% TCN (m^2) @ t=18, gamma=0.19, alpha=0.0175
0.002608322923638866
% TCTL (m^2) @ t=19, gamma=0.19, alpha=0.0175
2.7612416104519837
% TCN (m^2) @ t=19, gamma=0.19, alpha=0.0175
0.002820560582940717
% TCTL (m^2) @ t=20, gamma=0.19, alpha=0.0175
3.00804660773114
% TCN (m^2) @ t=20, gamma=0.19, alpha=0.0175
0.003039708580571409
% TCTL (m^2) @ t=21, gamma=0.19, alpha=0.0175
3.2789090999444896
% TCN (m^2) @ t=21, gamma=0.19, alpha=0.0175
0.0032634585214114404
% TCTL (m^2) @ t=22, gamma=0.19, alpha=0.0175
3.5758933108900095
% TCN (m^2) @ t=22, gamma=0.19, alpha=0.0175
0.0034890402610135048
% TCTL (m^2) @ t=23, gamma=0.19, alpha=0.0175
3.901299722844385
% TCN (m^2) @ t=23, gamma=0.19, alpha=0.0175
0.003712667244646358
% TCTL (m^2) @ t=24, gamma=0.19, alpha=0.0175
4.257670481470965
% TCN (m^2) @ t=24, gamma=0.19, alpha=0.0175
0.00392973908462651
% TCTL (m^2) @ t=25, gamma=0.19, alpha=0.0175
4.647794805372453
% TCN (m^2) @ t=25, gamma=0.19, alpha=0.0175
0.004136557443125972
% TCTL (m^2) @ t=26, gamma=0.19, alpha=0.0175
5.074760608283561
% TCN (m^2) @ t=26, gamma=0.19, alpha=0.0175
0.004329425405881227
% TCTL (m^2) @ t=27, gamma=0.19, alpha=0.0175
5.541845814045608
% TCN (m^2) @ t=27, gamma=0.19, alpha=0.0175
0.004499040364300904
% TCTL (m^2) @ t=28, gamma=0.19, alpha=0.0175