% Model:              MODEL_SC_3_0.15_II.mph
% Version:            COMSOL 5.6.0.401
% Date:               May 21 2022, 13:21
% Dimension:          0
% Nodes:              12462
% Expressions:        12462
% Description:        , 
% TCTL (m^2) @ t=0, gamma=0.22, alpha=0.015
0.9000048460281266
% TCN (m^2) @ t=0, gamma=0.22, alpha=0.015
4.638411029806591E-4
% TCTL (m^2) @ t=1, gamma=0.22, alpha=0.015
0.9170272183355467
% TCN (m^2) @ t=1, gamma=0.22, alpha=0.015
5.031620551139676E-4
% TCTL (m^2) @ t=2, gamma=0.22, alpha=0.015
0.9418423918902343
% TCN (m^2) @ t=2, gamma=0.22, alpha=0.015
5.431608444732914E-4
% TCTL (m^2) @ t=3, gamma=0.22, alpha=0.015
0.9749181344901277
% TCN (m^2) @ t=3, gamma=0.22, alpha=0.015
5.840455935703577E-4
% TCTL (m^2) @ t=4, gamma=0.22, alpha=0.015
1.0165356390547635
% TCN (m^2) @ t=4, gamma=0.22, alpha=0.015
6.260126778135204E-4
% TCTL (m^2) @ t=5, gamma=0.22, alpha=0.015
1.067110918162419
% TCN (m^2) @ t=5, gamma=0.22, alpha=0.015
6.693330593087515E-4
% TCTL (m^2) @ t=6, gamma=0.22, alpha=0.015
1.1271974012142771
% TCN (m^2) @ t=6, gamma=0.22, alpha=0.015
7.14309417377634E-4
% TCTL (m^2) @ t=7, gamma=0.22, alpha=0.015
1.197542600388182
% TCN (m^2) @ t=7, gamma=0.22, alpha=0.015
7.612842614468058E-4
% TCTL (m^2) @ t=8, gamma=0.22, alpha=0.015
1.2790482057777408
% TCN (m^2) @ t=8, gamma=0.22, alpha=0.015
8.105884411612123E-4
% TCTL (m^2) @ t=9, gamma=0.22, alpha=0.015
1.3726456126708397
% TCN (m^2) @ t=9, gamma=0.22, alpha=0.015
8.625608088169647E-4
% TCTL (m^2) @ t=10, gamma=0.22, alpha=0.015
1.4798173885397998
% TCN (m^2) @ t=10, gamma=0.22, alpha=0.015
9.175460726424153E-4
% TCTL (m^2) @ t=11, gamma=0.22, alpha=0.015
1.6018713602011756
% TCN (m^2) @ t=11, gamma=0.22, alpha=0.015
9.758323580712689E-4
% TCTL (m^2) @ t=12, gamma=0.22, alpha=0.015
1.7407416497318975
% TCN (m^2) @ t=12, gamma=0.22, alpha=0.015
0.0010375930151672282
% TCTL (m^2) @ t=13, gamma=0.22, alpha=0.015
1.8983652271795997
% TCN (m^2) @ t=13, gamma=0.22, alpha=0.015
0.0011028718663513139
% TCTL (m^2) @ t=14, gamma=0.22, alpha=0.015
2.076959658442002
% TCN (m^2) @ t=14, gamma=0.22, alpha=0.015
0.0011716105587649124
% TCTL (m^2) @ t=15, gamma=0.22, alpha=0.015
2.2793414833520993
% TCN (m^2) @ t=15, gamma=0.22, alpha=0.015
0.001243296457427624
% TCTL (m^2) @ t=16, gamma=0.22, alpha=0.015
2.5084088569183205
% TCN (m^2) @ t=16, gamma=0.22, alpha=0.015
0.001317361111411217
% TCTL (m^2) @ t=17, gamma=0.22, alpha=0.015
2.767201411582281
% TCN (m^2) @ t=17, gamma=0.22, alpha=0.015
0.0013929775217589825
% TCTL (m^2) @ t=18, gamma=0.22, alpha=0.015
3.0591351887946625
% TCN (m^2) @ t=18, gamma=0.22, alpha=0.015
0.0014691442072614364
% TCTL (m^2) @ t=19, gamma=0.22, alpha=0.015
3.3878860396890627
% TCN (m^2) @ t=19, gamma=0.22, alpha=0.015
0.001544737136715006
% TCTL (m^2) @ t=20, gamma=0.22, alpha=0.015
3.7576692332900707
% TCN (m^2) @ t=20, gamma=0.22, alpha=0.015
0.0016183050685982534
% TCTL (m^2) @ t=21, gamma=0.22, alpha=0.015
4.17318217237611
% TCN (m^2) @ t=21, gamma=0.22, alpha=0.015
0.0016881577159327341
% TCTL (m^2) @ t=22, gamma=0.22, alpha=0.015
4.6400603210896225
% TCN (m^2) @ t=22, gamma=0.22, alpha=0.015
0.0017519289714139118
% TCTL (m^2) @ t=23, gamma=0.22, alpha=0.015
5.163520430138963
% TCN (m^2) @ t=23, gamma=0.22, alpha=0.015
0.0018076659532107772
% TCTL (m^2) @ t=24, gamma=0.22, alpha=0.015
5.750080111416863
% TCN (m^2) @ t=24, gamma=0.22, alpha=0.015
0.0018530392616090065
% TCTL (m^2) @ t=25, gamma=0.22, alpha=0.015
6.406129972524195
% TCN (m^2) @ t=25, gamma=0.22, alpha=0.015
0.0018856648002787916
% TCTL (m^2) @ t=26, gamma=0.22, alpha=0.015
7.139072834899556
% TCN (m^2) @ t=26, gamma=0.22, alpha=0.015
0.0019028399606520411
% TCTL (m^2) @ t=27, gamma=0.22, alpha=0.015
7.956772247369004
% TCN (m^2) @ t=27, gamma=0.22, alpha=0.015
0.0019032437711306092
% TCTL (m^2) @ t=28, gamma=0.22, alpha=0.015
8.86706117534098
% TCN (m^2) @ t=28, gamma=0.22, alpha=0.015
0.001885228123625427
% TCTL (m^2) @ t=29, gamma=0.22, alpha=0.015
9.877915946676241
% TCN (m^2) @ t=29, gamma=0.22, alpha=0.015
0.0018470789268940188
% TCTL (m^2) @ t=30, gamma=0.22, alpha=0.015
10.999029162299507
% TCN (m^2) @ t=30, gamma=0.22, alpha=0.015
0.0017876053969846984
% TCTL (m^2) @ t=31, gamma=0.22, alpha=0.015
12.237356337402668
% TCN (m^2) @ t=31, gamma=0.22, alpha=0.015
0.0017076286202052592
% TCTL (m^2) @ t=32, gamma=0.22, alpha=0.015
13.59155312758883
% TCN (m^2) @ t=32, gamma=0.22, alpha=0.015
0.0016086179258020883
% TCTL (m^2) @ t=33, gamma=0.22, alpha=0.015
15.062432750324739
% TCN (m^2) @ t=33, gamma=0.22, alpha=0.015
0.0014917081998723678
% TCTL (m^2) @ t=34, gamma=0.22, alpha=0.015
16.63056137433747
% TCN (m^2) @ t=34, gamma=0.22, alpha=0.015
0.0013631199923402823
% TCTL (m^2) @ t=35, gamma=0.22, alpha=0.015
18.288500647463913
% TCN (m^2) @ t=35, gamma=0.22, alpha=0.015
0.0012230501849496524
% TCTL (m^2) @ t=36, gamma=0.22, alpha=0.015
19.969965319760934
% TCN (m^2) @ t=36, gamma=0.22, alpha=0.015
0.0010774171930264399
% TCTL (m^2) @ t=37, gamma=0.22, alpha=0.015
21.65364919256331
% TCN (m^2) @ t=37, gamma=0.22, alpha=0.015
9.268968317470776E-4
% TCTL (m^2) @ t=38, gamma=0.22, alpha=0.015
23.214366833708098
% TCN (m^2) @ t=38, gamma=0.22, alpha=0.015
7.793281473283081E-4
% TCTL (m^2) @ t=39, gamma=0.22, alpha=0.015
24.49332990670849
% TCN (m^2) @ t=39, gamma=0.22, alpha=0.015
6.3901938379866E-4
% TCTL (m^2) @ t=40, gamma=0.22, alpha=0.015
25.28794244320221
% TCN (m^2) @ t=40, gamma=0.22, alpha=0.015
5.118974663748932E-4
% TCTL (m^2) @ t=41, gamma=0.22, alpha=0.015
25.58225627643007
% TCN (m^2) @ t=41, gamma=0.22, alpha=0.015
3.980699470270329E-4
% TCTL (m^2) @ t=42, gamma=0.22, alpha=0.015
25.282602971652917
% TCN (m^2) @ t=42, gamma=0.22, alpha=0.015
3.0074894102006053E-4
% TCTL (m^2) @ t=43, gamma=0.22, alpha=0.015
24.414045042390388
% TCN (m^2) @ t=43, gamma=0.22, alpha=0.015
2.2126990728483928E-4
% TCTL (m^2) @ t=44, gamma=0.22, alpha=0.015
23.03537649239683
% TCN (m^2) @ t=44, gamma=0.22, alpha=0.015
1.594551977079017E-4
% TCTL (m^2) @ t=45, gamma=0.22, alpha=0.015
21.37584139260754
% TCN (m^2) @ t=45, gamma=0.22, alpha=0.015
1.1161189730534819E-4
% TCTL (m^2) @ t=46, gamma=0.22, alpha=0.015
19.555658747964422
% TCN (m^2) @ t=46, gamma=0.22, alpha=0.015
7.660468527073328E-5
% TCTL (m^2) @ t=47, gamma=0.22, alpha=0.015
17.7651320516578
% TCN (m^2) @ t=47, gamma=0.22, alpha=0.015
5.179019408742605E-5
% TCTL (m^2) @ t=48, gamma=0.22, alpha=0.015
16.033656896094055
% TCN (m^2) @ t=48, gamma=0.22, alpha=0.015
3.468182690196138E-5
% TCTL (m^2) @ t=49, gamma=0.22, alpha=0.015
14.468043773831667
% TCN (m^2) @ t=49, gamma=0.22, alpha=0.015
2.3079207512354448E-5
% TCTL (m^2) @ t=50, gamma=0.22, alpha=0.015
13.058212890285725
% TCN (m^2) @ t=50, gamma=0.22, alpha=0.015
1.5756955863229832E-5
% TCTL (m^2) @ t=51, gamma=0.22, alpha=0.015
11.803709635524553
% TCN (m^2) @ t=51, gamma=0.22, alpha=0.015
1.1108875691424217E-5
% TCTL (m^2) @ t=52, gamma=0.22, alpha=0.015
10.675920111410843
% TCN (m^2) @ t=52, gamma=0.22, alpha=0.015
7.92000256741423E-6
% TCTL (m^2) @ t=53, gamma=0.22, alpha=0.015
9.660174689172763
% TCN (m^2) @ t=53, gamma=0.22, alpha=0.015
5.767974523219821E-6
% TCTL (m^2) @ t=54, gamma=0.22, alpha=0.015
8.738192496897561
% TCN (m^2) @ t=54, gamma=0.22, alpha=0.015
4.153218666670688E-6
% TCTL (m^2) @ t=55, gamma=0.22, alpha=0.015
7.9039697456757745
% TCN (m^2) @ t=55, gamma=0.22, alpha=0.015
3.039032853491338E-6
% TCTL (m^2) @ t=56, gamma=0.22, alpha=0.015
7.14878184762983
% TCN (m^2) @ t=56, gamma=0.22, alpha=0.015
2.2783463144770404E-6
% TCTL (m^2) @ t=57, gamma=0.22, alpha=0.015
6.465084550936304
% TCN (m^2) @ t=57, gamma=0.22, alpha=0.015
1.7629385625034808E-6
% TCTL (m^2) @ t=58, gamma=0.22, alpha=0.015
5.846705119428758
% TCN (m^2) @ t=58, gamma=0.22, alpha=0.015
1.4121910434506863E-6
% TCTL (m^2) @ t=59, gamma=0.22, alpha=0.015
5.288083907688154
% TCN (m^2) @ t=59, gamma=0.22, alpha=0.015
1.1728993587472125E-6
% TCTL (m^2) @ t=60, gamma=0.22, alpha=0.015
4.784053675384332
% TCN (m^2) @ t=60, gamma=0.22, alpha=0.015
1.0062111518519772E-6
% TCTL (m^2) @ t=61, gamma=0.22, alpha=0.015
4.328518284716914
% TCN (m^2) @ t=61, gamma=0.22, alpha=0.015
8.879723411094694E-7
% TCTL (m^2) @ t=62, gamma=0.22, alpha=0.015
3.9169045071608406
% TCN (m^2) @ t=62, gamma=0.22, alpha=0.015
8.059043036905815E-7
% TCTL (m^2) @ t=63, gamma=0.22, alpha=0.015
3.544488742406009
% TCN (m^2) @ t=63, gamma=0.22, alpha=0.015
7.522653087370516E-7
% TCTL (m^2) @ t=64, gamma=0.22, alpha=0.015
3.2075554098908152
% TCN (m^2) @ t=64, gamma=0.22, alpha=0.015
7.218405931422249E-7
% TCTL (m^2) @ t=65, gamma=0.22, alpha=0.015
2.9012162491325064
% TCN (m^2) @ t=65, gamma=0.22, alpha=0.015
7.062124831506754E-7
% TCTL (m^2) @ t=66, gamma=0.22, alpha=0.015
2.6239048448140467
% TCN (m^2) @ t=66, gamma=0.22, alpha=0.015
7.055231707208287E-7
% TCTL (m^2) @ t=67, gamma=0.22, alpha=0.015
2.3730758250075246
% TCN (m^2) @ t=67, gamma=0.22, alpha=0.015
7.195156012276302E-7
% TCTL (m^2) @ t=68, gamma=0.22, alpha=0.015
2.1455602062858152
% TCN (m^2) @ t=68, gamma=0.22, alpha=0.015
7.482129618778461E-7
% TCTL (m^2) @ t=69, gamma=0.22, alpha=0.015
1.9381431206013109
% TCN (m^2) @ t=69, gamma=0.22, alpha=0.015
7.927986261078659E-7
% TCTL (m^2) @ t=70, gamma=0.22, alpha=0.015
1.7513194476056593
% TCN (m^2) @ t=70, gamma=0.22, alpha=0.015
8.53338320125085E-7
% TCTL (m^2) @ t=71, gamma=0.22, alpha=0.015
1.5806158107255457
% TCN (m^2) @ t=71, gamma=0.22, alpha=0.015
9.353751122297882E-7
% TCTL (m^2) @ t=72, gamma=0.22, alpha=0.015
1.4278777793598934
% TCN (m^2) @ t=72, gamma=0.22, alpha=0.015
1.036622113074857E-6
% TCTL (m^2) @ t=73, gamma=0.22, alpha=0.015
1.2890573154640177
% TCN (m^2) @ t=73, gamma=0.22, alpha=0.015
1.166206935321223E-6
% TCTL (m^2) @ t=74, gamma=0.22, alpha=0.015
1.163735487758995
% TCN (m^2) @ t=74, gamma=0.22, alpha=0.015
1.3250741952010707E-6
% TCTL (m^2) @ t=75, gamma=0.22, alpha=0.015
1.0511105692580816
% TCN (m^2) @ t=75, gamma=0.22, alpha=0.015
1.5194278115551225E-6
% TCTL (m^2) @ t=76, gamma=0.22, alpha=0.015
0.9484794303568507
% TCN (m^2) @ t=76, gamma=0.22, alpha=0.015
1.7622333035452695E-6
% TCTL (m^2) @ t=77, gamma=0.22, alpha=0.015
0.8571436618991657
% TCN (m^2) @ t=77, gamma=0.22, alpha=0.015
2.0483185743517675E-6
% TCTL (m^2) @ t=78, gamma=0.22, alpha=0.015
0.7744909298295306
% TCN (m^2) @ t=78, gamma=0.22, alpha=0.015
2.4059794899730604E-6
% TCTL (m^2) @ t=79, gamma=0.22, alpha=0.015
0.7003441965480611
% TCN (m^2) @ t=79, gamma=0.22, alpha=0.015
2.837133658225219E-6
% TCTL (m^2) @ t=80, gamma=0.22, alpha=0.015
0.6336550609383123
% TCN (m^2) @ t=80, gamma=0.22, alpha=0.015
3.3655058617492224E-6
% TCTL (m^2) @ t=81, gamma=0.22, alpha=0.015
0.5734564578856051
% TCN (m^2) @ t=81, gamma=0.22, alpha=0.015
4.0084287625090325E-6
% TCTL (m^2) @ t=82, gamma=0.22, alpha=0.015
0.5190773569290951
% TCN (m^2) @ t=82, gamma=0.22, alpha=0.015
4.79037194254011E-6
% TCTL (m^2) @ t=83, gamma=0.22, alpha=0.015
0.4700948143921107
% TCN (m^2) @ t=83, gamma=0.22, alpha=0.015
5.749792451983852E-6
% TCTL (m^2) @ t=84, gamma=0.22, alpha=0.015
0.4256894207253391
% TCN (m^2) @ t=84, gamma=0.22, alpha=0.015
6.9101313884188045E-6
% TCTL (m^2) @ t=85, gamma=0.22, alpha=0.015
0.38565233193121584
% TCN (m^2) @ t=85, gamma=0.22, alpha=0.015
8.339757834659514E-6
% TCTL (m^2) @ t=86, gamma=0.22, alpha=0.015
0.3492971803560237
% TCN (m^2) @ t=86, gamma=0.22, alpha=0.015
1.0067273428753055E-5
% TCTL (m^2) @ t=87, gamma=0.22, alpha=0.015
0.31643203652182994
% TCN (m^2) @ t=87, gamma=0.22, alpha=0.015
1.2185719259578198E-5
% TCTL (m^2) @ t=88, gamma=0.22, alpha=0.015
0.2866651249612795
% TCN (m^2) @ t=88, gamma=0.22, alpha=0.015
1.4758493949886266E-5
% TCTL (m^2) @ t=89, gamma=0.22, alpha=0.015
0.2596393721337856
% TCN (m^2) @ t=89, gamma=0.22, alpha=0.015
1.787139479802523E-5
% TCTL (m^2) @ t=90, gamma=0.22, alpha=0.015
0.23515904313316027
% TCN (m^2) @ t=90, gamma=0.22, alpha=0.015
2.1658979035293918E-5
% TCTL (m^2) @ t=91, gamma=0.22, alpha=0.015
0.21295494549530253
% TCN (m^2) @ t=91, gamma=0.22, alpha=0.015
2.6234988256135366E-5
% TCTL (m^2) @ t=92, gamma=0.22, alpha=0.015
0.19286072512499094
% TCN (m^2) @ t=92, gamma=0.22, alpha=0.015
3.179270551530775E-5
% TCTL (m^2) @ t=93, gamma=0.22, alpha=0.015
0.17472845887866817
% TCN (m^2) @ t=93, gamma=0.22, alpha=0.015
3.850675810377502E-5
% TCTL (m^2) @ t=94, gamma=0.22, alpha=0.015
0.15836506640505674
% TCN (m^2) @ t=94, gamma=0.22, alpha=0.015
4.663017322049748E-5
% TCTL (m^2) @ t=95, gamma=0.22, alpha=0.015
0.14364110214973394
% TCN (m^2) @ t=95, gamma=0.22, alpha=0.015
5.6428177750908755E-5
% TCTL (m^2) @ t=96, gamma=0.22, alpha=0.015
0.13045048686342453
% TCN (m^2) @ t=96, gamma=0.22, alpha=0.015
6.823226111773943E-5
% TCTL (m^2) @ t=97, gamma=0.22, alpha=0.015
0.1186966747720733
% TCN (m^2) @ t=97, gamma=0.22, alpha=0.015
8.245166725762445E-5
% TCTL (m^2) @ t=98, gamma=0.22, alpha=0.015
0.10830628686370503
% TCN (m^2) @ t=98, gamma=0.22, alpha=0.015
9.952688457444945E-5
% TCTL (m^2) @ t=99, gamma=0.22, alpha=0.015
0.09919981299813713
% TCN (m^2) @ t=99, gamma=0.22, alpha=0.015
1.2013268470207795E-4
% TCTL (m^2) @ t=100, gamma=0.22, alpha=0.015
0.09133309112568042
% TCN (m^2) @ t=100, gamma=0.22, alpha=0.015
1.448867867692091E-4
% TCTL (m^2) @ t=101, gamma=0.22, alpha=0.015
0.08467248644348044
% TCN (m^2) @ t=101, gamma=0.22, alpha=0.015
1.7452468279217703E-4
% TCTL (m^2) @ t=102, gamma=0.22, alpha=0.015
0.07920041507519203
% TCN (m^2) @ t=102, gamma=0.22, alpha=0.015
2.098607316860248E-4
% TCTL (m^2) @ t=103, gamma=0.22, alpha=0.015
0.07493690284858137
% TCN (m^2) @ t=103, gamma=0.22, alpha=0.015
2.521096909061702E-4
% TCTL (m^2) @ t=104, gamma=0.22, alpha=0.015
0.07191809733815153
% TCN (m^2) @ t=104, gamma=0.22, alpha=0.015
3.0256624103286976E-4
% TCTL (m^2) @ t=105, gamma=0.22, alpha=0.015
0.07017932463270612
% TCN (m^2) @ t=105, gamma=0.22, alpha=0.015
3.623522912334844E-4
% TCTL (m^2) @ t=106, gamma=0.22, alpha=0.015
0.06978365339092657
% TCN (m^2) @ t=106, gamma=0.22, alpha=0.015
4.3284298893016835E-4
% TCTL (m^2) @ t=107, gamma=0.22, alpha=0.015
0.07074399866452735
% TCN (m^2) @ t=107, gamma=0.22, alpha=0.015
5.161004807851627E-4
% TCTL (m^2) @ t=108, gamma=0.22, alpha=0.015
0.07302287852627491
% TCN (m^2) @ t=108, gamma=0.22, alpha=0.015
6.148759554225178E-4
% TCTL (m^2) @ t=109, gamma=0.22, alpha=0.015
0.0767435720341539
% TCN (m^2) @ t=109, gamma=0.22, alpha=0.015
7.308373072684479E-4
% TCTL (m^2) @ t=110, gamma=0.22, alpha=0.015
0.08197801268872994
% TCN (m^2) @ t=110, gamma=0.22, alpha=0.015
8.663494345225616E-4
% TCTL (m^2) @ t=111, gamma=0.22, alpha=0.015
0.08878591145761593
% TCN (m^2) @ t=111, gamma=0.22, alpha=0.015
0.0010244478776043646
% TCTL (m^2) @ t=112, gamma=0.22, alpha=0.015
0.09715579483808537
% TCN (m^2) @ t=112, gamma=0.22, alpha=0.015
0.0012101277419517844
% TCTL (m^2) @ t=113, gamma=0.22, alpha=0.015
0.10720334267941495
% TCN (m^2) @ t=113, gamma=0.22, alpha=0.015
0.0014260079832812069
% TCTL (m^2) @ t=114, gamma=0.22, alpha=0.015
0.11900489816034285
% TCN (m^2) @ t=114, gamma=0.22, alpha=0.015
0.0016759709214041463
% TCTL (m^2) @ t=115, gamma=0.22, alpha=0.015
0.13264996341995056
% TCN (m^2) @ t=115, gamma=0.22, alpha=0.015
0.0019642759607096587
% TCTL (m^2) @ t=116, gamma=0.22, alpha=0.015
0.1483891942337909
% TCN (m^2) @ t=116, gamma=0.22, alpha=0.015
0.002297522292777124
% TCTL (m^2) @ t=117, gamma=0.22, alpha=0.015
0.16629096187500808
% TCN (m^2) @ t=117, gamma=0.22, alpha=0.015
0.002680094226234435
% TCTL (m^2) @ t=118, gamma=0.22, alpha=0.015
0.1865032715028566
% TCN (m^2) @ t=118, gamma=0.22, alpha=0.015
0.0031176347435029157
% TCTL (m^2) @ t=119, gamma=0.22, alpha=0.015
0.20918608062186672
% TCN (m^2) @ t=119, gamma=0.22, alpha=0.015
0.0036161479094750813
% TCTL (m^2) @ t=120, gamma=0.22, alpha=0.015
0.23504421690052166
% TCN (m^2) @ t=120, gamma=0.22, alpha=0.015
0.004183787517979159
% TCTL (m^2) @ t=121, gamma=0.22, alpha=0.015
0.26427821708242527
% TCN (m^2) @ t=121, gamma=0.22, alpha=0.015
0.004827335764087557
% TCTL (m^2) @ t=122, gamma=0.22, alpha=0.015
0.2972150576792165
% TCN (m^2) @ t=122, gamma=0.22, alpha=0.015
0.00555432018257229
% TCTL (m^2) @ t=123, gamma=0.22, alpha=0.015
0.3342609759357167
% TCN (m^2) @ t=123, gamma=0.22, alpha=0.015
0.0063728552996363905
% TCTL (m^2) @ t=124, gamma=0.22, alpha=0.015
0.3761722721493745
% TCN (m^2) @ t=124, gamma=0.22, alpha=0.015
0.007288052885634331
% TCTL (m^2) @ t=125, gamma=0.22, alpha=0.015
0.4235687941153865
% TCN (m^2) @ t=125, gamma=0.22, alpha=0.015
0.008307333433199695
% TCTL (m^2) @ t=126, gamma=0.22, alpha=0.015
0.4770136450325297
% TCN (m^2) @ t=126, gamma=0.22, alpha=0.015
0.009439555955266712
% TCTL (m^2) @ t=127, gamma=0.22, alpha=0.015
0.5372059536630774
% TCN (m^2) @ t=127, gamma=0.22, alpha=0.015
0.010692913438817096
% TCTL (m^2) @ t=128, gamma=0.22, alpha=0.015
0.6051405265487002
% TCN (m^2) @ t=128, gamma=0.22, alpha=0.015
0.012071330589465173
% TCTL (m^2) @ t=129, gamma=0.22, alpha=0.015
0.6819607867097273
% TCN (m^2) @ t=129, gamma=0.22, alpha=0.015
0.013577195977446922
% TCTL (m^2) @ t=130, gamma=0.22, alpha=0.015
0.7686265888900726
% TCN (m^2) @ t=130, gamma=0.22, alpha=0.015
0.015217533458937393
% TCTL (m^2) @ t=131, gamma=0.22, alpha=0.015
0.8663346167323686
% TCN (m^2) @ t=131, gamma=0.22, alpha=0.015
0.016996191919713827
% TCTL (m^2) @ t=132, gamma=0.22, alpha=0.015
0.9765360752589597
% TCN (m^2) @ t=132, gamma=0.22, alpha=0.015
0.018913760231897683
% TCTL (m^2) @ t=133, gamma=0.22, alpha=0.015
1.1010590837178171
% TCN (m^2) @ t=133, gamma=0.22, alpha=0.015
0.020965497884946227
% TCTL (m^2) @ t=134, gamma=0.22, alpha=0.015
1.2415197934950484
% TCN (m^2) @ t=134, gamma=0.22, alpha=0.015
0.023151233050718305
% TCTL (m^2) @ t=135, gamma=0.22, alpha=0.015
1.399865406283125
% TCN (m^2) @ t=135, gamma=0.22, alpha=0.015
0.02546621605543893
% TCTL (m^2) @ t=136, gamma=0.22, alpha=0.015
1.5783337021150305
% TCN (m^2) @ t=136, gamma=0.22, alpha=0.015
0.02790156899559144
% TCTL (m^2) @ t=137, gamma=0.22, alpha=0.015
1.779938701382213
% TCN (m^2) @ t=137, gamma=0.22, alpha=0.015
0.030435002281580623
% TCTL (m^2) @ t=138, gamma=0.22, alpha=0.015
2.0072821156292413
% TCN (m^2) @ t=138, gamma=0.22, alpha=0.015
0.033053587503488066
% TCTL (m^2) @ t=139, gamma=0.22, alpha=0.015
2.2635123322454564
% TCN (m^2) @ t=139, gamma=0.22, alpha=0.015
0.0357354112090173
% TCTL (m^2) @ t=140, gamma=0.22, alpha=0.015
2.552106942840961
% TCN (m^2) @ t=140, gamma=0.22, alpha=0.015
0.03845374099500654
% TCTL (m^2) @ t=141, gamma=0.22, alpha=0.015
2.878142872587209
% TCN (m^2) @ t=141, gamma=0.22, alpha=0.015
0.04115084317039209
% TCTL (m^2) @ t=142, gamma=0.22, alpha=0.015
3.2457852245950702
% TCN (m^2) @ t=142, gamma=0.22, alpha=0.015
0.04378987748780776
% TCTL (m^2) @ t=143, gamma=0.22, alpha=0.015
3.6601622535386142
% TCN (m^2) @ t=143, gamma=0.22, alpha=0.015
0.0463162258063586
% TCTL (m^2) @ t=144, gamma=0.22, alpha=0.015
4.12693422351417
% TCN (m^2) @ t=144, gamma=0.22, alpha=0.015
0.048666438101574845
% TCTL (m^2) @ t=145, gamma=0.22, alpha=0.015
4.653907558704345
% TCN (m^2) @ t=145, gamma=0.22, alpha=0.015
0.05080734428836331
% TCTL (m^2) @ t=146, gamma=0.22, alpha=0.015
5.24769529014196
% TCN (m^2) @ t=146, gamma=0.22, alpha=0.015
0.05266984916687315
% TCTL (m^2) @ t=147, gamma=0.22, alpha=0.015
5.915571811959129
% TCN (m^2) @ t=147, gamma=0.22, alpha=0.015
0.054179460341053975
% TCTL (m^2) @ t=148, gamma=0.22, alpha=0.015
6.670151145879714
% TCN (m^2) @ t=148, gamma=0.22, alpha=0.015
0.05525148317619815
% TCTL (m^2) @ t=149, gamma=0.22, alpha=0.015
7.521121504357501
% TCN (m^2) @ t=149, gamma=0.22, alpha=0.015
0.05580315989204263
% TCTL (m^2) @ t=150, gamma=0.22, alpha=0.015
8.479436321598216
% TCN (m^2) @ t=150, gamma=0.22, alpha=0.015
0.05574483456264087
% TCTL (m^2) @ t=151, gamma=0.22, alpha=0.015
9.562546732375864
% TCN (m^2) @ t=151, gamma=0.22, alpha=0.015
0.055044880773354884
% TCTL (m^2) @ t=152, gamma=0.22, alpha=0.015
10.780522226601162
% TCN (m^2) @ t=152, gamma=0.22, alpha=0.015
0.05361662384618686
% TCTL (m^2) @ t=153, gamma=0.22, alpha=0.015
12.157554755099696
% TCN (m^2) @ t=153, gamma=0.22, alpha=0.015
0.0515633896008404
% TCTL (m^2) @ t=154, gamma=0.22, alpha=0.015
13.708863854238636
% TCN (m^2) @ t=154, gamma=0.22, alpha=0.015
0.048856942801489736
% TCTL (m^2) @ t=155, gamma=0.22, alpha=0.015
15.46028129686471
% TCN (m^2) @ t=155, gamma=0.22, alpha=0.015
0.04550236726636997
% TCTL (m^2) @ t=156, gamma=0.22, alpha=0.015
17.432822792676042
% TCN (m^2) @ t=156, gamma=0.22, alpha=0.015
0.041513051476868845
% TCTL (m^2) @ t=157, gamma=0.22, alpha=0.015
19.658929095990402
% TCN (m^2) @ t=157, gamma=0.22, alpha=0.015
0.037155155406530506
% TCTL (m^2) @ t=158, gamma=0.22, alpha=0.015
22.167163793341423
% TCN (m^2) @ t=158, gamma=0.22, alpha=0.015
0.032514006805590724
% TCTL (m^2) @ t=159, gamma=0.22, alpha=0.015
24.996947432465213
% TCN (m^2) @ t=159, gamma=0.22, alpha=0.015
0.02774982826237419
% TCTL (m^2) @ t=160, gamma=0.22, alpha=0.015
28.187868687183048
% TCN (m^2) @ t=160, gamma=0.22, alpha=0.015
0.023058043364752506
% TCTL (m^2) @ t=161, gamma=0.22, alpha=0.015
31.78241713234666
% TCN (m^2) @ t=161, gamma=0.22, alpha=0.015
0.018623616329816805
% TCTL (m^2) @ t=162, gamma=0.22, alpha=0.015
35.83517274544863
% TCN (m^2) @ t=162, gamma=0.22, alpha=0.015
0.014496263124061753
% TCTL (m^2) @ t=163, gamma=0.22, alpha=0.015
40.41715152291322
% TCN (m^2) @ t=163, gamma=0.22, alpha=0.015
0.01088393688297819
% TCTL (m^2) @ t=164, gamma=0.22, alpha=0.015
45.57115106295494
% TCN (m^2) @ t=164, gamma=0.22, alpha=0.015
0.007894364487697331
% TCTL (m^2) @ t=165, gamma=0.22, alpha=0.015
51.364912798919384
% TCN (m^2) @ t=165, gamma=0.22, alpha=0.015
0.0054676283070797345
% TCTL (m^2) @ t=166, gamma=0.22, alpha=0.015
57.759168586448354
% TCN (m^2) @ t=166, gamma=0.22, alpha=0.015
0.0035814856424297398
% TCTL (m^2) @ t=167, gamma=0.22, alpha=0.015
64.68134587031572
% TCN (m^2) @ t=167, gamma=0.22, alpha=0.015
0.002201183599886436
% TCTL (m^2) @ t=168, gamma=0.22, alpha=0.015
71.45330013515532
% TCN (m^2) @ t=168, gamma=0.22, alpha=0.015
0.0012206863714369894
% TCTL (m^2) @ t=169, gamma=0.22, alpha=0.015
76.73728493268145
% TCN (m^2) @ t=169, gamma=0.22, alpha=0.015
6.251911317737363E-4
% TCTL (m^2) @ t=170, gamma=0.22, alpha=0.015
77.72341111976057
% TCN (m^2) @ t=170, gamma=0.22, alpha=0.015
3.1002310799146243E-4
% TCTL (m^2) @ t=171, gamma=0.22, alpha=0.015
73.6584414448239
% TCN (m^2) @ t=171, gamma=0.22, alpha=0.015
1.4822695922833156E-4
% TCTL (m^2) @ t=172, gamma=0.22, alpha=0.015
67.43620481612561
% TCN (m^2) @ t=172, gamma=0.22, alpha=0.015
6.787498635706346E-5
% TCTL (m^2) @ t=173, gamma=0.22, alpha=0.015
61.235935320349675
% TCN (m^2) @ t=173, gamma=0.22, alpha=0.015
2.510809229430503E-5
% TCTL (m^2) @ t=174, gamma=0.22, alpha=0.015
55.42577516528898
% TCN (m^2) @ t=174, gamma=0.22, alpha=0.015
8.75672428655834E-6
% TCTL (m^2) @ t=175, gamma=0.22, alpha=0.015
50.1468293521923
% TCN (m^2) @ t=175, gamma=0.22, alpha=0.015
2.8861476033039508E-6
% TCTL (m^2) @ t=176, gamma=0.22, alpha=0.015
45.44326769085867
% TCN (m^2) @ t=176, gamma=0.22, alpha=0.015
1.0999825486067651E-6
% TCTL (m^2) @ t=177, gamma=0.22, alpha=0.015
41.14514001060682
% TCN (m^2) @ t=177, gamma=0.22, alpha=0.015
3.6428680195980964E-7
% TCTL (m^2) @ t=178, gamma=0.22, alpha=0.015
37.228765346957395
% TCN (m^2) @ t=178, gamma=0.22, alpha=0.015
8.597243429537751E-8
% TCTL (m^2) @ t=179, gamma=0.22, alpha=0.015
33.68299561500427
% TCN (m^2) @ t=179, gamma=0.22, alpha=0.015
1.451183111651419E-8
% TCTL (m^2) @ t=180, gamma=0.22, alpha=0.015
30.47631895123358
% TCN (m^2) @ t=180, gamma=0.22, alpha=0.015
3.6621620562068084E-9
% TCTL (m^2) @ t=181, gamma=0.22, alpha=0.015
27.57519410710926
% TCN (m^2) @ t=181, gamma=0.22, alpha=0.015
1.4574846937733666E-9
% TCTL (m^2) @ t=182, gamma=0.22, alpha=0.015
24.949960053326656
% TCN (m^2) @ t=182, gamma=0.22, alpha=0.015
8.892985722661407E-10
% TCTL (m^2) @ t=183, gamma=0.22, alpha=0.015
22.574612341089317
% TCN (m^2) @ t=183, gamma=0.22, alpha=0.015
7.322623895757801E-10
% TCTL (m^2) @ t=184, gamma=0.22, alpha=0.015
20.426376327879503
% TCN (m^2) @ t=184, gamma=0.22, alpha=0.015
7.290558337505422E-10
% TCTL (m^2) @ t=185, gamma=0.22, alpha=0.015
18.48194852182263
% TCN (m^2) @ t=185, gamma=0.22, alpha=0.015
7.710426657646582E-10
% TCTL (m^2) @ t=186, gamma=0.22, alpha=0.015
16.722862089193516
% TCN (m^2) @ t=186, gamma=0.22, alpha=0.015
8.333702832929741E-10
% TCTL (m^2) @ t=187, gamma=0.22, alpha=0.015
15.131577856564999
% TCN (m^2) @ t=187, gamma=0.22, alpha=0.015
9.102595951983394E-10
% TCTL (m^2) @ t=188, gamma=0.22, alpha=0.015
13.691660326826593
% TCN (m^2) @ t=188, gamma=0.22, alpha=0.015
9.977548937146364E-10
% TCTL (m^2) @ t=189, gamma=0.22, alpha=0.015
12.388032624030446
% TCN (m^2) @ t=189, gamma=0.22, alpha=0.015
1.0936857086919624E-9
% TCTL (m^2) @ t=190, gamma=0.22, alpha=0.015
11.206608717845238
% TCN (m^2) @ t=190, gamma=0.22, alpha=0.015
1.1984509825263502E-9
% TCTL (m^2) @ t=191, gamma=0.22, alpha=0.015
10.136517828106236
% TCN (m^2) @ t=191, gamma=0.22, alpha=0.015
1.3133829501557225E-9
% TCTL (m^2) @ t=192, gamma=0.22, alpha=0.015
9.161984527452876
% TCN (m^2) @ t=192, gamma=0.22, alpha=0.015
1.4402733824814467E-9
% TCTL (m^2) @ t=193, gamma=0.22, alpha=0.015
8.28046135933257
% TCN (m^2) @ t=193, gamma=0.22, alpha=0.015
1.5791862569462383E-9
% TCTL (m^2) @ t=194, gamma=0.22, alpha=0.015
7.480900532462207
% TCN (m^2) @ t=194, gamma=0.22, alpha=0.015
1.7308037972677116E-9
% TCTL (m^2) @ t=195, gamma=0.22, alpha=0.015
6.761158886444472
% TCN (m^2) @ t=195, gamma=0.22, alpha=0.015
1.8955086156087863E-9
% TCTL (m^2) @ t=196, gamma=0.22, alpha=0.015
6.1075161157111815
% TCN (m^2) @ t=196, gamma=0.22, alpha=0.015
2.074658312268249E-9
% TCTL (m^2) @ t=197, gamma=0.22, alpha=0.015
5.5192707006729025
% TCN (m^2) @ t=197, gamma=0.22, alpha=0.015
2.2688022475037676E-9
% TCTL (m^2) @ t=198, gamma=0.22, alpha=0.015
4.985554942539837
% TCN (m^2) @ t=198, gamma=0.22, alpha=0.015
2.4798023637038793E-9
% TCTL (m^2) @ t=199, gamma=0.22, alpha=0.015
4.507352540851606
% TCN (m^2) @ t=199, gamma=0.22, alpha=0.015
2.7086069495521045E-9
% TCTL (m^2) @ t=200, gamma=0.22, alpha=0.015
4.075646074314906
% TCN (m^2) @ t=200, gamma=0.22, alpha=0.015
2.9593236159488487E-9
% TCTL (m^2) @ t=0, gamma=0.22, alpha=0.0175
0.9000048464119197
% TCN (m^2) @ t=0, gamma=0.22, alpha=0.0175
4.638471031338244E-4
% TCTL (m^2) @ t=1, gamma=0.22, alpha=0.0175
0.9189351472030504
% TCN (m^2) @ t=1, gamma=0.22, alpha=0.0175
5.198467332935075E-4
% TCTL (m^2) @ t=2, gamma=0.22, alpha=0.0175
0.948744115677682
% TCN (m^2) @ t=2, gamma=0.22, alpha=0.0175
5.790898333795601E-4
% TCTL (m^2) @ t=3, gamma=0.22, alpha=0.0175
0.9900908237370749
% TCN (m^2) @ t=3, gamma=0.22, alpha=0.0175
6.41731646939079E-4
% TCTL (m^2) @ t=4, gamma=0.22, alpha=0.0175
1.043350012974849
% TCN (m^2) @ t=4, gamma=0.22, alpha=0.0175
7.078750076589198E-4
% TCTL (m^2) @ t=5, gamma=0.22, alpha=0.0175
1.1090683737724052
% TCN (m^2) @ t=5, gamma=0.22, alpha=0.0175
7.7773134810777E-4
% TCTL (m^2) @ t=6, gamma=0.22, alpha=0.0175
1.1879772891244607
% TCN (m^2) @ t=6, gamma=0.22, alpha=0.0175
8.516278806963986E-4
% TCTL (m^2) @ t=7, gamma=0.22, alpha=0.0175
1.2810718759194415
% TCN (m^2) @ t=7, gamma=0.22, alpha=0.0175
9.300063137805265E-4
% TCTL (m^2) @ t=8, gamma=0.22, alpha=0.0175
1.3895607010239241
% TCN (m^2) @ t=8, gamma=0.22, alpha=0.0175
0.00101334885722361
% TCTL (m^2) @ t=9, gamma=0.22, alpha=0.0175
1.5146923368685483
% TCN (m^2) @ t=9, gamma=0.22, alpha=0.0175
0.001102151767287954
% TCTL (m^2) @ t=10, gamma=0.22, alpha=0.0175
1.6584729886495695
% TCN (m^2) @ t=10, gamma=0.22, alpha=0.0175
0.0011970933052830733
% TCTL (m^2) @ t=11, gamma=0.22, alpha=0.0175
1.8226661159641449
% TCN (m^2) @ t=11, gamma=0.22, alpha=0.0175
0.0012986673464682992
% TCTL (m^2) @ t=12, gamma=0.22, alpha=0.0175
2.009889695886299
% TCN (m^2) @ t=12, gamma=0.22, alpha=0.0175
0.0014072904497591703
% TCTL (m^2) @ t=13, gamma=0.22, alpha=0.0175
2.222770811374596
% TCN (m^2) @ t=13, gamma=0.22, alpha=0.0175
0.0015230259760808558
% TCTL (m^2) @ t=14, gamma=0.22, alpha=0.0175
2.4643200915655004
% TCN (m^2) @ t=14, gamma=0.22, alpha=0.0175
0.0016457688490436602
% TCTL (m^2) @ t=15, gamma=0.22, alpha=0.0175
2.73850401887391
% TCN (m^2) @ t=15, gamma=0.22, alpha=0.0175
0.0017745032726679075
% TCTL (m^2) @ t=16, gamma=0.22, alpha=0.0175
3.0493807324892517
% TCN (m^2) @ t=16, gamma=0.22, alpha=0.0175
0.0019080912693677245
% TCTL (m^2) @ t=17, gamma=0.22, alpha=0.0175
3.401079210307545
% TCN (m^2) @ t=17, gamma=0.22, alpha=0.0175
0.0020447541801242603
% TCTL (m^2) @ t=18, gamma=0.22, alpha=0.0175
3.798432527635681
% TCN (m^2) @ t=18, gamma=0.22, alpha=0.0175
0.002182394409594772
% TCTL (m^2) @ t=19, gamma=0.22, alpha=0.0175
4.24687632742757
% TCN (m^2) @ t=19, gamma=0.22, alpha=0.0175
0.0023186313475279927
% TCTL (m^2) @ t=20, gamma=0.22, alpha=0.0175
4.752460739057063
% TCN (m^2) @ t=20, gamma=0.22, alpha=0.0175
0.0024497565072683644
% TCTL (m^2) @ t=21, gamma=0.22, alpha=0.0175
5.321970641048072
% TCN (m^2) @ t=21, gamma=0.22, alpha=0.0175
0.002571184795183583
% TCTL (m^2) @ t=22, gamma=0.22, alpha=0.0175
5.963259868530899
% TCN (m^2) @ t=22, gamma=0.22, alpha=0.0175
0.0026818917907460646
% TCTL (m^2) @ t=23, gamma=0.22, alpha=0.0175
6.6849934194648
% TCN (m^2) @ t=23, gamma=0.22, alpha=0.0175
0.0027774745075608885
% TCTL (m^2) @ t=24, gamma=0.22, alpha=0.0175
7.497003484581999
% TCN (m^2) @ t=24, gamma=0.22, alpha=0.0175
0.0028456636785620182
% TCTL (m^2) @ t=25, gamma=0.22, alpha=0.0175
8.409361604683067
% TCN (m^2) @ t=25, gamma=0.22, alpha=0.0175
0.0028853632460586138
% TCTL (m^2) @ t=26, gamma=0.22, alpha=0.0175
9.433613843712969
% TCN (m^2) @ t=26, gamma=0.22, alpha=0.0175
0.0028980599001278053
% TCTL (m^2) @ t=27, gamma=0.22, alpha=0.0175
10.582336806905282
% TCN (m^2) @ t=27, gamma=0.22, alpha=0.0175
0.0028740286496486437