% Model:              MODEL_SC_3_0.15_II.mph
% Version:            COMSOL 5.6.0.401
% Date:               May 21 2022, 13:13
% Dimension:          0
% Nodes:              12462
% Expressions:        12462
% Description:        , 
% TCTL (m^2) @ t=0, gamma=0.1425, alpha=0.015
0.8999904564960466
% TCN (m^2) @ t=0, gamma=0.1425, alpha=0.015
4.638411033188691E-4
% TCTL (m^2) @ t=1, gamma=0.1425, alpha=0.015
0.8797288199732527
% TCN (m^2) @ t=1, gamma=0.1425, alpha=0.015
5.050292493523025E-4
% TCTL (m^2) @ t=2, gamma=0.1425, alpha=0.015
0.8653662872459643
% TCN (m^2) @ t=2, gamma=0.1425, alpha=0.015
5.504112973505361E-4
% TCTL (m^2) @ t=3, gamma=0.1425, alpha=0.015
0.8554776213052756
% TCN (m^2) @ t=3, gamma=0.1425, alpha=0.015
5.996393382592587E-4
% TCTL (m^2) @ t=4, gamma=0.1425, alpha=0.015
0.8502618275240661
% TCN (m^2) @ t=4, gamma=0.1425, alpha=0.015
6.537365524844094E-4
% TCTL (m^2) @ t=5, gamma=0.1425, alpha=0.015
0.8496451067414463
% TCN (m^2) @ t=5, gamma=0.1425, alpha=0.015
7.133434455109347E-4
% TCTL (m^2) @ t=6, gamma=0.1425, alpha=0.015
0.8532917541240203
% TCN (m^2) @ t=6, gamma=0.1425, alpha=0.015
7.789145637934288E-4
% TCTL (m^2) @ t=7, gamma=0.1425, alpha=0.015
0.8610155123618015
% TCN (m^2) @ t=7, gamma=0.1425, alpha=0.015
8.510387402349661E-4
% TCTL (m^2) @ t=8, gamma=0.1425, alpha=0.015
0.8726386916078104
% TCN (m^2) @ t=8, gamma=0.1425, alpha=0.015
9.30223280644127E-4
% TCTL (m^2) @ t=9, gamma=0.1425, alpha=0.015
0.8878800453425859
% TCN (m^2) @ t=9, gamma=0.1425, alpha=0.015
0.0010173792369246979
% TCTL (m^2) @ t=10, gamma=0.1425, alpha=0.015
0.9066250966276657
% TCN (m^2) @ t=10, gamma=0.1425, alpha=0.015
0.001112893360174152
% TCTL (m^2) @ t=11, gamma=0.1425, alpha=0.015
0.9286398673568321
% TCN (m^2) @ t=11, gamma=0.1425, alpha=0.015
0.0012176310584361525
% TCTL (m^2) @ t=12, gamma=0.1425, alpha=0.015
0.9538351483284628
% TCN (m^2) @ t=12, gamma=0.1425, alpha=0.015
0.001332513778917807
% TCTL (m^2) @ t=13, gamma=0.1425, alpha=0.015
0.9820575327073142
% TCN (m^2) @ t=13, gamma=0.1425, alpha=0.015
0.0014583362027643103
% TCTL (m^2) @ t=14, gamma=0.1425, alpha=0.015
1.0131838884863136
% TCN (m^2) @ t=14, gamma=0.1425, alpha=0.015
0.0015959748621012272
% TCTL (m^2) @ t=15, gamma=0.1425, alpha=0.015
1.0471515019530475
% TCN (m^2) @ t=15, gamma=0.1425, alpha=0.015
0.0017464034150946291
% TCTL (m^2) @ t=16, gamma=0.1425, alpha=0.015
1.083815858218392
% TCN (m^2) @ t=16, gamma=0.1425, alpha=0.015
0.0019104640196018245
% TCTL (m^2) @ t=17, gamma=0.1425, alpha=0.015
1.123117406351078
% TCN (m^2) @ t=17, gamma=0.1425, alpha=0.015
0.0020890883894645698
% TCTL (m^2) @ t=18, gamma=0.1425, alpha=0.015
1.1651219268437254
% TCN (m^2) @ t=18, gamma=0.1425, alpha=0.015
0.002283307532959112
% TCTL (m^2) @ t=19, gamma=0.1425, alpha=0.015
1.2096931981455872
% TCN (m^2) @ t=19, gamma=0.1425, alpha=0.015
0.0024939924212533703
% TCTL (m^2) @ t=20, gamma=0.1425, alpha=0.015
1.2568308254071299
% TCN (m^2) @ t=20, gamma=0.1425, alpha=0.015
0.0027219761728367363
% TCTL (m^2) @ t=21, gamma=0.1425, alpha=0.015
1.3066553167866481
% TCN (m^2) @ t=21, gamma=0.1425, alpha=0.015
0.002967918329990166
% TCTL (m^2) @ t=22, gamma=0.1425, alpha=0.015
1.3590826101899953
% TCN (m^2) @ t=22, gamma=0.1425, alpha=0.015
0.003232772129332041
% TCTL (m^2) @ t=23, gamma=0.1425, alpha=0.015
1.4141562860493104
% TCN (m^2) @ t=23, gamma=0.1425, alpha=0.015
0.003517028291900289
% TCTL (m^2) @ t=24, gamma=0.1425, alpha=0.015
1.4720068535118367
% TCN (m^2) @ t=24, gamma=0.1425, alpha=0.015
0.003820614189558416
% TCTL (m^2) @ t=25, gamma=0.1425, alpha=0.015
1.5326092957113815
% TCN (m^2) @ t=25, gamma=0.1425, alpha=0.015
0.004144465094162052
% TCTL (m^2) @ t=26, gamma=0.1425, alpha=0.015
1.5960778097074768
% TCN (m^2) @ t=26, gamma=0.1425, alpha=0.015
0.004488590630507198
% TCTL (m^2) @ t=27, gamma=0.1425, alpha=0.015
1.6626847070154622
% TCN (m^2) @ t=27, gamma=0.1425, alpha=0.015
0.004851931354792402
% TCTL (m^2) @ t=28, gamma=0.1425, alpha=0.015
1.7325294816471253
% TCN (m^2) @ t=28, gamma=0.1425, alpha=0.015
0.005234596304397608
% TCTL (m^2) @ t=29, gamma=0.1425, alpha=0.015
1.805745224206876
% TCN (m^2) @ t=29, gamma=0.1425, alpha=0.015
0.005636021711191111
% TCTL (m^2) @ t=30, gamma=0.1425, alpha=0.015
1.8823913971735324
% TCN (m^2) @ t=30, gamma=0.1425, alpha=0.015
0.006055408158820726
% TCTL (m^2) @ t=31, gamma=0.1425, alpha=0.015
1.9626648391602985
% TCN (m^2) @ t=31, gamma=0.1425, alpha=0.015
0.006491853720189648
% TCTL (m^2) @ t=32, gamma=0.1425, alpha=0.015
2.046656121195011
% TCN (m^2) @ t=32, gamma=0.1425, alpha=0.015
0.006943935618574029
% TCTL (m^2) @ t=33, gamma=0.1425, alpha=0.015
2.134364903171018
% TCN (m^2) @ t=33, gamma=0.1425, alpha=0.015
0.007409607489148932
% TCTL (m^2) @ t=34, gamma=0.1425, alpha=0.015
2.2259150078683367
% TCN (m^2) @ t=34, gamma=0.1425, alpha=0.015
0.007887151860764193
% TCTL (m^2) @ t=35, gamma=0.1425, alpha=0.015
2.321464694079677
% TCN (m^2) @ t=35, gamma=0.1425, alpha=0.015
0.008374078089146983
% TCTL (m^2) @ t=36, gamma=0.1425, alpha=0.015
2.421274945276439
% TCN (m^2) @ t=36, gamma=0.1425, alpha=0.015
0.008867265756158272
% TCTL (m^2) @ t=37, gamma=0.1425, alpha=0.015
2.5254593288136946
% TCN (m^2) @ t=37, gamma=0.1425, alpha=0.015
0.009363769220340566
% TCTL (m^2) @ t=38, gamma=0.1425, alpha=0.015
2.6342241945673868
% TCN (m^2) @ t=38, gamma=0.1425, alpha=0.015
0.009859507898490898
% TCTL (m^2) @ t=39, gamma=0.1425, alpha=0.015
2.747774933601116
% TCN (m^2) @ t=39, gamma=0.1425, alpha=0.015
0.010350418428790911
% TCTL (m^2) @ t=40, gamma=0.1425, alpha=0.015
2.8662757774811456
% TCN (m^2) @ t=40, gamma=0.1425, alpha=0.015
0.010833551783112858
% TCTL (m^2) @ t=41, gamma=0.1425, alpha=0.015
2.9899496611969854
% TCN (m^2) @ t=41, gamma=0.1425, alpha=0.015
0.011304423722943428
% TCTL (m^2) @ t=42, gamma=0.1425, alpha=0.015
3.1190363226665436
% TCN (m^2) @ t=42, gamma=0.1425, alpha=0.015
0.01175811695289632
% TCTL (m^2) @ t=43, gamma=0.1425, alpha=0.015
3.2537156037018233
% TCN (m^2) @ t=43, gamma=0.1425, alpha=0.015
0.012191257862095985
% TCTL (m^2) @ t=44, gamma=0.1425, alpha=0.015
3.3943023143984217
% TCN (m^2) @ t=44, gamma=0.1425, alpha=0.015
0.01259857596265684
% TCTL (m^2) @ t=45, gamma=0.1425, alpha=0.015
3.541142197146985
% TCN (m^2) @ t=45, gamma=0.1425, alpha=0.015
0.012974443505151768
% TCTL (m^2) @ t=46, gamma=0.1425, alpha=0.015
3.6944346692359784
% TCN (m^2) @ t=46, gamma=0.1425, alpha=0.015
0.013314922764496433
% TCTL (m^2) @ t=47, gamma=0.1425, alpha=0.015
3.8544386093866367
% TCN (m^2) @ t=47, gamma=0.1425, alpha=0.015
0.01361538924848772
% TCTL (m^2) @ t=48, gamma=0.1425, alpha=0.015
4.021412896320148
% TCN (m^2) @ t=48, gamma=0.1425, alpha=0.015
0.013871218464922523
% TCTL (m^2) @ t=49, gamma=0.1425, alpha=0.015
4.195616408757746
% TCN (m^2) @ t=49, gamma=0.1425, alpha=0.015
0.014077785921597974
% TCTL (m^2) @ t=50, gamma=0.1425, alpha=0.015
4.377476945940735
% TCN (m^2) @ t=50, gamma=0.1425, alpha=0.015
0.014236770320945365
% TCTL (m^2) @ t=51, gamma=0.1425, alpha=0.015
4.567335223487884
% TCN (m^2) @ t=51, gamma=0.1425, alpha=0.015
0.014346600878465593
% TCTL (m^2) @ t=52, gamma=0.1425, alpha=0.015
4.765384444150698
% TCN (m^2) @ t=52, gamma=0.1425, alpha=0.015
0.01440020243213885
% TCTL (m^2) @ t=53, gamma=0.1425, alpha=0.015
4.9719117936844
% TCN (m^2) @ t=53, gamma=0.1425, alpha=0.015
0.014394006754241118
% TCTL (m^2) @ t=54, gamma=0.1425, alpha=0.015
5.187204457844305
% TCN (m^2) @ t=54, gamma=0.1425, alpha=0.015
0.014324445617048567
% TCTL (m^2) @ t=55, gamma=0.1425, alpha=0.015
5.411723690568745
% TCN (m^2) @ t=55, gamma=0.1425, alpha=0.015
0.014194428793553936
% TCTL (m^2) @ t=56, gamma=0.1425, alpha=0.015
5.646480968857652
% TCN (m^2) @ t=56, gamma=0.1425, alpha=0.015
0.014027342776417037
% TCTL (m^2) @ t=57, gamma=0.1425, alpha=0.015
5.891369940851302
% TCN (m^2) @ t=57, gamma=0.1425, alpha=0.015
0.013804973715105237
% TCTL (m^2) @ t=58, gamma=0.1425, alpha=0.015
6.146752303582661
% TCN (m^2) @ t=58, gamma=0.1425, alpha=0.015
0.013526526341902684
% TCTL (m^2) @ t=59, gamma=0.1425, alpha=0.015
6.412989754084676
% TCN (m^2) @ t=59, gamma=0.1425, alpha=0.015
0.0131912053890933
% TCTL (m^2) @ t=60, gamma=0.1425, alpha=0.015
6.6904439893902925
% TCN (m^2) @ t=60, gamma=0.1425, alpha=0.015
0.012798215588961201
% TCTL (m^2) @ t=61, gamma=0.1425, alpha=0.015
6.9802624044368375
% TCN (m^2) @ t=61, gamma=0.1425, alpha=0.015
0.012375562011399093
% TCTL (m^2) @ t=62, gamma=0.1425, alpha=0.015
7.282593487482153
% TCN (m^2) @ t=62, gamma=0.1425, alpha=0.015
0.011914634063398077
% TCTL (m^2) @ t=63, gamma=0.1425, alpha=0.015
7.597776534856822
% TCN (m^2) @ t=63, gamma=0.1425, alpha=0.015
0.011413815362933778
% TCTL (m^2) @ t=64, gamma=0.1425, alpha=0.015
7.926249454427804
% TCN (m^2) @ t=64, gamma=0.1425, alpha=0.015
0.010875104206760099
% TCTL (m^2) @ t=65, gamma=0.1425, alpha=0.015
8.268450154062135
% TCN (m^2) @ t=65, gamma=0.1425, alpha=0.015
0.010300498891630903
% TCTL (m^2) @ t=66, gamma=0.1425, alpha=0.015
8.625110686970125
% TCN (m^2) @ t=66, gamma=0.1425, alpha=0.015
0.00970162734926876
% TCTL (m^2) @ t=67, gamma=0.1425, alpha=0.015
8.996910647007685
% TCN (m^2) @ t=67, gamma=0.1425, alpha=0.015
0.009088400114046106
% TCTL (m^2) @ t=68, gamma=0.1425, alpha=0.015
9.384119968271152
% TCN (m^2) @ t=68, gamma=0.1425, alpha=0.015
0.00845731641182372
% TCTL (m^2) @ t=69, gamma=0.1425, alpha=0.015
9.787230187443402
% TCN (m^2) @ t=69, gamma=0.1425, alpha=0.015
0.007812130222157295
% TCTL (m^2) @ t=70, gamma=0.1425, alpha=0.015
10.20673284120729
% TCN (m^2) @ t=70, gamma=0.1425, alpha=0.015
0.007156595524602457
% TCTL (m^2) @ t=71, gamma=0.1425, alpha=0.015
10.642544708355548
% TCN (m^2) @ t=71, gamma=0.1425, alpha=0.015
0.006499683048232057
% TCTL (m^2) @ t=72, gamma=0.1425, alpha=0.015
11.090916465777171
% TCN (m^2) @ t=72, gamma=0.1425, alpha=0.015
0.005883638637895616
% TCTL (m^2) @ t=73, gamma=0.1425, alpha=0.015
11.55451262000153
% TCN (m^2) @ t=73, gamma=0.1425, alpha=0.015
0.005292493465349055
% TCTL (m^2) @ t=74, gamma=0.1425, alpha=0.015
12.033418188481177
% TCN (m^2) @ t=74, gamma=0.1425, alpha=0.015
0.004733691253316479
% TCTL (m^2) @ t=75, gamma=0.1425, alpha=0.015
12.527718188668604
% TCN (m^2) @ t=75, gamma=0.1425, alpha=0.015
0.00421467572452181
% TCTL (m^2) @ t=76, gamma=0.1425, alpha=0.015
13.037497638016397
% TCN (m^2) @ t=76, gamma=0.1425, alpha=0.015
0.0037428906016891573
% TCTL (m^2) @ t=77, gamma=0.1425, alpha=0.015
13.544490109043451
% TCN (m^2) @ t=77, gamma=0.1425, alpha=0.015
0.003285270303365881
% TCTL (m^2) @ t=78, gamma=0.1425, alpha=0.015
14.05507446179079
% TCN (m^2) @ t=78, gamma=0.1425, alpha=0.015
0.0028477485558726324
% TCTL (m^2) @ t=79, gamma=0.1425, alpha=0.015
14.573483739535867
% TCN (m^2) @ t=79, gamma=0.1425, alpha=0.015
0.0024383222894178522
% TCTL (m^2) @ t=80, gamma=0.1425, alpha=0.015
15.099717942278716
% TCN (m^2) @ t=80, gamma=0.1425, alpha=0.015
0.0020569915040015195
% TCTL (m^2) @ t=81, gamma=0.1425, alpha=0.015
15.60238324694126
% TCN (m^2) @ t=81, gamma=0.1425, alpha=0.015
0.0017145603777387521
% TCTL (m^2) @ t=82, gamma=0.1425, alpha=0.015
16.041536213434288
% TCN (m^2) @ t=82, gamma=0.1425, alpha=0.015
0.0014247754377785908
% TCTL (m^2) @ t=83, gamma=0.1425, alpha=0.015
16.455257330660213
% TCN (m^2) @ t=83, gamma=0.1425, alpha=0.015
0.0011745312912611362
% TCTL (m^2) @ t=84, gamma=0.1425, alpha=0.015
16.715951548088423
% TCN (m^2) @ t=84, gamma=0.1425, alpha=0.015
9.569067553711357E-4
% TCTL (m^2) @ t=85, gamma=0.1425, alpha=0.015
16.820726251307455
% TCN (m^2) @ t=85, gamma=0.1425, alpha=0.015
7.717449250164844E-4
% TCTL (m^2) @ t=86, gamma=0.1425, alpha=0.015
16.787681556926884
% TCN (m^2) @ t=86, gamma=0.1425, alpha=0.015
6.195430292316416E-4
% TCTL (m^2) @ t=87, gamma=0.1425, alpha=0.015
16.477982833892625
% TCN (m^2) @ t=87, gamma=0.1425, alpha=0.015
4.871829281984366E-4
% TCTL (m^2) @ t=88, gamma=0.1425, alpha=0.015
15.957933330519609
% TCN (m^2) @ t=88, gamma=0.1425, alpha=0.015
3.809294513415543E-4
% TCTL (m^2) @ t=89, gamma=0.1425, alpha=0.015
15.252516966414849
% TCN (m^2) @ t=89, gamma=0.1425, alpha=0.015
2.9410375852859024E-4
% TCTL (m^2) @ t=90, gamma=0.1425, alpha=0.015
14.364413820476083
% TCN (m^2) @ t=90, gamma=0.1425, alpha=0.015
2.259893961853301E-4
% TCTL (m^2) @ t=91, gamma=0.1425, alpha=0.015
13.382207993476655
% TCN (m^2) @ t=91, gamma=0.1425, alpha=0.015
1.7270386719121154E-4
% TCTL (m^2) @ t=92, gamma=0.1425, alpha=0.015
12.361410202823137
% TCN (m^2) @ t=92, gamma=0.1425, alpha=0.015
1.3103607736113528E-4
% TCTL (m^2) @ t=93, gamma=0.1425, alpha=0.015
11.320848588404562
% TCN (m^2) @ t=93, gamma=0.1425, alpha=0.015
1.0025698724666029E-4
% TCTL (m^2) @ t=94, gamma=0.1425, alpha=0.015
10.329412336922156
% TCN (m^2) @ t=94, gamma=0.1425, alpha=0.015
7.682031340716785E-5
% TCTL (m^2) @ t=95, gamma=0.1425, alpha=0.015
9.388997642897104
% TCN (m^2) @ t=95, gamma=0.1425, alpha=0.015
5.903424544036534E-5
% TCTL (m^2) @ t=96, gamma=0.1425, alpha=0.015
8.508447813998787
% TCN (m^2) @ t=96, gamma=0.1425, alpha=0.015
4.604165884627676E-5
% TCTL (m^2) @ t=97, gamma=0.1425, alpha=0.015
7.701563512580775
% TCN (m^2) @ t=97, gamma=0.1425, alpha=0.015
3.5773452153074555E-5
% TCTL (m^2) @ t=98, gamma=0.1425, alpha=0.015
6.962053576090164
% TCN (m^2) @ t=98, gamma=0.1425, alpha=0.015
2.8467258776056766E-5
% TCTL (m^2) @ t=99, gamma=0.1425, alpha=0.015
6.288307260080604
% TCN (m^2) @ t=99, gamma=0.1425, alpha=0.015
2.2787942442035054E-5
% TCTL (m^2) @ t=100, gamma=0.1425, alpha=0.015
5.679435104761157
% TCN (m^2) @ t=100, gamma=0.1425, alpha=0.015
1.8821769972666336E-5
% TCTL (m^2) @ t=101, gamma=0.1425, alpha=0.015
5.13323689892185
% TCN (m^2) @ t=101, gamma=0.1425, alpha=0.015
1.5988442627453533E-5
% TCTL (m^2) @ t=102, gamma=0.1425, alpha=0.015
4.639906294132841
% TCN (m^2) @ t=102, gamma=0.1425, alpha=0.015
1.3930212997835729E-5
% TCTL (m^2) @ t=103, gamma=0.1425, alpha=0.015
4.194495738211054
% TCN (m^2) @ t=103, gamma=0.1425, alpha=0.015
1.2306804651945315E-5
% TCTL (m^2) @ t=104, gamma=0.1425, alpha=0.015
3.797008928861458
% TCN (m^2) @ t=104, gamma=0.1425, alpha=0.015
1.1215433756448962E-5
% TCTL (m^2) @ t=105, gamma=0.1425, alpha=0.015
3.440263223891229
% TCN (m^2) @ t=105, gamma=0.1425, alpha=0.015
1.0459649390209737E-5
% TCTL (m^2) @ t=106, gamma=0.1425, alpha=0.015
3.114116257183657
% TCN (m^2) @ t=106, gamma=0.1425, alpha=0.015
9.981463212470125E-6
% TCTL (m^2) @ t=107, gamma=0.1425, alpha=0.015
2.81980392145617
% TCN (m^2) @ t=107, gamma=0.1425, alpha=0.015
9.761302735948676E-6
% TCTL (m^2) @ t=108, gamma=0.1425, alpha=0.015
2.5558916390429793
% TCN (m^2) @ t=108, gamma=0.1425, alpha=0.015
9.772950220158616E-6
% TCTL (m^2) @ t=109, gamma=0.1425, alpha=0.015
2.313124533320685
% TCN (m^2) @ t=109, gamma=0.1425, alpha=0.015
9.855595686031177E-6
% TCTL (m^2) @ t=110, gamma=0.1425, alpha=0.015
2.0927224153276094
% TCN (m^2) @ t=110, gamma=0.1425, alpha=0.015
1.0063095064330866E-5
% TCTL (m^2) @ t=111, gamma=0.1425, alpha=0.015
1.8920491869781495
% TCN (m^2) @ t=111, gamma=0.1425, alpha=0.015
1.0421413499244208E-5
% TCTL (m^2) @ t=112, gamma=0.1425, alpha=0.015
1.7100747593561758
% TCN (m^2) @ t=112, gamma=0.1425, alpha=0.015
1.0932377039374412E-5
% TCTL (m^2) @ t=113, gamma=0.1425, alpha=0.015
1.5457988392307256
% TCN (m^2) @ t=113, gamma=0.1425, alpha=0.015
1.1601645478085145E-5
% TCTL (m^2) @ t=114, gamma=0.1425, alpha=0.015
1.3964483531497964
% TCN (m^2) @ t=114, gamma=0.1425, alpha=0.015
1.2465915776396996E-5
% TCTL (m^2) @ t=115, gamma=0.1425, alpha=0.015
1.2623600359434826
% TCN (m^2) @ t=115, gamma=0.1425, alpha=0.015
1.3525857414609752E-5
% TCTL (m^2) @ t=116, gamma=0.1425, alpha=0.015
1.1413029874542424
% TCN (m^2) @ t=116, gamma=0.1425, alpha=0.015
1.4837762483172389E-5
% TCTL (m^2) @ t=117, gamma=0.1425, alpha=0.015
1.0324881813964326
% TCN (m^2) @ t=117, gamma=0.1425, alpha=0.015
1.6421251377968995E-5
% TCTL (m^2) @ t=118, gamma=0.1425, alpha=0.015
0.9347544430131567
% TCN (m^2) @ t=118, gamma=0.1425, alpha=0.015
1.8305198559629874E-5
% TCTL (m^2) @ t=119, gamma=0.1425, alpha=0.015
0.8469700383394654
% TCN (m^2) @ t=119, gamma=0.1425, alpha=0.015
2.056658329851562E-5
% TCTL (m^2) @ t=120, gamma=0.1425, alpha=0.015
0.7679783680381205
% TCN (m^2) @ t=120, gamma=0.1425, alpha=0.015
2.3241756066515503E-5
% TCTL (m^2) @ t=121, gamma=0.1425, alpha=0.015
0.6966229695816911
% TCN (m^2) @ t=121, gamma=0.1425, alpha=0.015
2.6367290876041535E-5
% TCTL (m^2) @ t=122, gamma=0.1425, alpha=0.015
0.6322692911903947
% TCN (m^2) @ t=122, gamma=0.1425, alpha=0.015
3.005989261853527E-5
% TCTL (m^2) @ t=123, gamma=0.1425, alpha=0.015
0.5747158907052421
% TCN (m^2) @ t=123, gamma=0.1425, alpha=0.015
3.4498379132308434E-5
% TCTL (m^2) @ t=124, gamma=0.1425, alpha=0.015
0.522620742342691
% TCN (m^2) @ t=124, gamma=0.1425, alpha=0.015
3.9697995324773694E-5
% TCTL (m^2) @ t=125, gamma=0.1425, alpha=0.015
0.4750980032863611
% TCN (m^2) @ t=125, gamma=0.1425, alpha=0.015
4.5739505916071525E-5
% TCTL (m^2) @ t=126, gamma=0.1425, alpha=0.015
0.43310497349370497
% TCN (m^2) @ t=126, gamma=0.1425, alpha=0.015
5.303960755413264E-5
% TCTL (m^2) @ t=127, gamma=0.1425, alpha=0.015
0.3953203401053345
% TCN (m^2) @ t=127, gamma=0.1425, alpha=0.015
6.159969601757144E-5
% TCTL (m^2) @ t=128, gamma=0.1425, alpha=0.015
0.3611758168912295
% TCN (m^2) @ t=128, gamma=0.1425, alpha=0.015
7.155841401501286E-5
% TCTL (m^2) @ t=129, gamma=0.1425, alpha=0.015
0.33041934429400194
% TCN (m^2) @ t=129, gamma=0.1425, alpha=0.015
8.340524770477601E-5
% TCTL (m^2) @ t=130, gamma=0.1425, alpha=0.015
0.30275242647542133
% TCN (m^2) @ t=130, gamma=0.1425, alpha=0.015
9.757816366643649E-5
% TCTL (m^2) @ t=131, gamma=0.1425, alpha=0.015
0.2775693321188412
% TCN (m^2) @ t=131, gamma=0.1425, alpha=0.015
1.1417426047429248E-4
% TCTL (m^2) @ t=132, gamma=0.1425, alpha=0.015
0.2549823153134344
% TCN (m^2) @ t=132, gamma=0.1425, alpha=0.015
1.33768890298851E-4
% TCTL (m^2) @ t=133, gamma=0.1425, alpha=0.015
0.23530742936082172
% TCN (m^2) @ t=133, gamma=0.1425, alpha=0.015
1.5704987162664207E-4
% TCTL (m^2) @ t=134, gamma=0.1425, alpha=0.015
0.2180106107624868
% TCN (m^2) @ t=134, gamma=0.1425, alpha=0.015
1.8423588715337966E-4
% TCTL (m^2) @ t=135, gamma=0.1425, alpha=0.015
0.20296131679322088
% TCN (m^2) @ t=135, gamma=0.1425, alpha=0.015
2.16142812157198E-4
% TCTL (m^2) @ t=136, gamma=0.1425, alpha=0.015
0.1900834856806518
% TCN (m^2) @ t=136, gamma=0.1425, alpha=0.015
2.539705835324685E-4
% TCTL (m^2) @ t=137, gamma=0.1425, alpha=0.015
0.17917719808374208
% TCN (m^2) @ t=137, gamma=0.1425, alpha=0.015
2.9804600847357595E-4
% TCTL (m^2) @ t=138, gamma=0.1425, alpha=0.015
0.17033704511788691
% TCN (m^2) @ t=138, gamma=0.1425, alpha=0.015
3.4981993245985707E-4
% TCTL (m^2) @ t=139, gamma=0.1425, alpha=0.015
0.16359742481920764
% TCN (m^2) @ t=139, gamma=0.1425, alpha=0.015
4.1055024526561465E-4
% TCTL (m^2) @ t=140, gamma=0.1425, alpha=0.015
0.1588292893234059
% TCN (m^2) @ t=140, gamma=0.1425, alpha=0.015
4.80970892395598E-4
% TCTL (m^2) @ t=141, gamma=0.1425, alpha=0.015
0.15587462462117951
% TCN (m^2) @ t=141, gamma=0.1425, alpha=0.015
5.636138725309498E-4
% TCTL (m^2) @ t=142, gamma=0.1425, alpha=0.015
0.15466797363915413
% TCN (m^2) @ t=142, gamma=0.1425, alpha=0.015
6.596613245738115E-4
% TCTL (m^2) @ t=143, gamma=0.1425, alpha=0.015
0.15511597611351768
% TCN (m^2) @ t=143, gamma=0.1425, alpha=0.015
7.706098845703E-4
% TCTL (m^2) @ t=144, gamma=0.1425, alpha=0.015
0.15690396769211667
% TCN (m^2) @ t=144, gamma=0.1425, alpha=0.015
9.001646398721802E-4
% TCTL (m^2) @ t=145, gamma=0.1425, alpha=0.015
0.15996728364351528
% TCN (m^2) @ t=145, gamma=0.1425, alpha=0.015
0.0010495804438172707
% TCTL (m^2) @ t=146, gamma=0.1425, alpha=0.015
0.16415345912235924
% TCN (m^2) @ t=146, gamma=0.1425, alpha=0.015
0.00122169124561797
% TCTL (m^2) @ t=147, gamma=0.1425, alpha=0.015
0.16929025096712028
% TCN (m^2) @ t=147, gamma=0.1425, alpha=0.015
0.0014209504937567445
% TCTL (m^2) @ t=148, gamma=0.1425, alpha=0.015
0.17523633107354922
% TCN (m^2) @ t=148, gamma=0.1425, alpha=0.015
0.0016492802325126484
% TCTL (m^2) @ t=149, gamma=0.1425, alpha=0.015
0.1819287432670713
% TCN (m^2) @ t=149, gamma=0.1425, alpha=0.015
0.001911360447726392
% TCTL (m^2) @ t=150, gamma=0.1425, alpha=0.015
0.18931555029918698
% TCN (m^2) @ t=150, gamma=0.1425, alpha=0.015
0.0022121061018223814
% TCTL (m^2) @ t=151, gamma=0.1425, alpha=0.015
0.1972518885601483
% TCN (m^2) @ t=151, gamma=0.1425, alpha=0.015
0.0025544505195635495
% TCTL (m^2) @ t=152, gamma=0.1425, alpha=0.015
0.20581080177005068
% TCN (m^2) @ t=152, gamma=0.1425, alpha=0.015
0.002945690920849139
% TCTL (m^2) @ t=153, gamma=0.1425, alpha=0.015
0.21494176349846772
% TCN (m^2) @ t=153, gamma=0.1425, alpha=0.015
0.0033906837971237596
% TCTL (m^2) @ t=154, gamma=0.1425, alpha=0.015
0.22456901912527566
% TCN (m^2) @ t=154, gamma=0.1425, alpha=0.015
0.003893904836286503
% TCTL (m^2) @ t=155, gamma=0.1425, alpha=0.015
0.23456193903517628
% TCN (m^2) @ t=155, gamma=0.1425, alpha=0.015
0.0044639355654267215
% TCTL (m^2) @ t=156, gamma=0.1425, alpha=0.015
0.24485286498322928
% TCN (m^2) @ t=156, gamma=0.1425, alpha=0.015
0.005106554096315237
% TCTL (m^2) @ t=157, gamma=0.1425, alpha=0.015
0.25541985632700254
% TCN (m^2) @ t=157, gamma=0.1425, alpha=0.015
0.00582932173387094
% TCTL (m^2) @ t=158, gamma=0.1425, alpha=0.015
0.2665505690497225
% TCN (m^2) @ t=158, gamma=0.1425, alpha=0.015
0.006642097159829084
% TCTL (m^2) @ t=159, gamma=0.1425, alpha=0.015
0.27824867979728557
% TCN (m^2) @ t=159, gamma=0.1425, alpha=0.015
0.007553473397475197
% TCTL (m^2) @ t=160, gamma=0.1425, alpha=0.015
0.29049675366822303
% TCN (m^2) @ t=160, gamma=0.1425, alpha=0.015
0.008573821828052093
% TCTL (m^2) @ t=161, gamma=0.1425, alpha=0.015
0.3031554658677025
% TCN (m^2) @ t=161, gamma=0.1425, alpha=0.015
0.009713237154916985
% TCTL (m^2) @ t=162, gamma=0.1425, alpha=0.015
0.3163181794144115
% TCN (m^2) @ t=162, gamma=0.1425, alpha=0.015
0.010980807811188313
% TCTL (m^2) @ t=163, gamma=0.1425, alpha=0.015
0.33024274211001703
% TCN (m^2) @ t=163, gamma=0.1425, alpha=0.015
0.012390436918649998
% TCTL (m^2) @ t=164, gamma=0.1425, alpha=0.015
0.3450719587038335
% TCN (m^2) @ t=164, gamma=0.1425, alpha=0.015
0.013954004224713813
% TCTL (m^2) @ t=165, gamma=0.1425, alpha=0.015
0.3608536477534412
% TCN (m^2) @ t=165, gamma=0.1425, alpha=0.015
0.01568171886198984
% TCTL (m^2) @ t=166, gamma=0.1425, alpha=0.015
0.3773169027068049
% TCN (m^2) @ t=166, gamma=0.1425, alpha=0.015
0.01758877939585042
% TCTL (m^2) @ t=167, gamma=0.1425, alpha=0.015
0.39456904195039505
% TCN (m^2) @ t=167, gamma=0.1425, alpha=0.015
0.0196863206301228
% TCTL (m^2) @ t=168, gamma=0.1425, alpha=0.015
0.4126263504550699
% TCN (m^2) @ t=168, gamma=0.1425, alpha=0.015
0.021987140860631325
% TCTL (m^2) @ t=169, gamma=0.1425, alpha=0.015
0.43149483384961873
% TCN (m^2) @ t=169, gamma=0.1425, alpha=0.015
0.024508167380269
% TCTL (m^2) @ t=170, gamma=0.1425, alpha=0.015
0.451181078782695
% TCN (m^2) @ t=170, gamma=0.1425, alpha=0.015
0.02726129521222698
% TCTL (m^2) @ t=171, gamma=0.1425, alpha=0.015
0.47164104503455995
% TCN (m^2) @ t=171, gamma=0.1425, alpha=0.015
0.030260299823450007
% TCTL (m^2) @ t=172, gamma=0.1425, alpha=0.015
0.4927707291409631
% TCN (m^2) @ t=172, gamma=0.1425, alpha=0.015
0.0335192854346805
% TCTL (m^2) @ t=173, gamma=0.1425, alpha=0.015
0.5145784370361657
% TCN (m^2) @ t=173, gamma=0.1425, alpha=0.015
0.03705174052043847
% TCTL (m^2) @ t=174, gamma=0.1425, alpha=0.015
0.5372486617487041
% TCN (m^2) @ t=174, gamma=0.1425, alpha=0.015
0.0408698459348193
% TCTL (m^2) @ t=175, gamma=0.1425, alpha=0.015
0.5609251153438655
% TCN (m^2) @ t=175, gamma=0.1425, alpha=0.015
0.04498607061381965
% TCTL (m^2) @ t=176, gamma=0.1425, alpha=0.015
0.5856014450030802
% TCN (m^2) @ t=176, gamma=0.1425, alpha=0.015
0.049413943570825986
% TCTL (m^2) @ t=177, gamma=0.1425, alpha=0.015
0.6113403426525283
% TCN (m^2) @ t=177, gamma=0.1425, alpha=0.015
0.05416650607838275
% TCTL (m^2) @ t=178, gamma=0.1425, alpha=0.015
0.6382045002183956
% TCN (m^2) @ t=178, gamma=0.1425, alpha=0.015
0.059256799409034375
% TCTL (m^2) @ t=179, gamma=0.1425, alpha=0.015
0.6662381115834731
% TCN (m^2) @ t=179, gamma=0.1425, alpha=0.015
0.0646952624496432
% TCTL (m^2) @ t=180, gamma=0.1425, alpha=0.015
0.69531406963068
% TCN (m^2) @ t=180, gamma=0.1425, alpha=0.015
0.07046823471287433
% TCTL (m^2) @ t=181, gamma=0.1425, alpha=0.015
0.7255821745320854
% TCN (m^2) @ t=181, gamma=0.1425, alpha=0.015
0.07660101224044993
% TCTL (m^2) @ t=182, gamma=0.1425, alpha=0.015
0.7570839558187504
% TCN (m^2) @ t=182, gamma=0.1425, alpha=0.015
0.08310365908657143
% TCTL (m^2) @ t=183, gamma=0.1425, alpha=0.015
0.7898609430217318
% TCN (m^2) @ t=183, gamma=0.1425, alpha=0.015
0.08998623930544042
% TCTL (m^2) @ t=184, gamma=0.1425, alpha=0.015
0.8239739743356355
% TCN (m^2) @ t=184, gamma=0.1425, alpha=0.015
0.09725003442669321
% TCTL (m^2) @ t=185, gamma=0.1425, alpha=0.015
0.8596346338151866
% TCN (m^2) @ t=185, gamma=0.1425, alpha=0.015
0.1048277593898795
% TCTL (m^2) @ t=186, gamma=0.1425, alpha=0.015
0.896802652159268
% TCN (m^2) @ t=186, gamma=0.1425, alpha=0.015
0.11276668435881518
% TCTL (m^2) @ t=187, gamma=0.1425, alpha=0.015
0.9355366464284761
% TCN (m^2) @ t=187, gamma=0.1425, alpha=0.015
0.12106910114352465
% TCTL (m^2) @ t=188, gamma=0.1425, alpha=0.015
0.9758952336834079
% TCN (m^2) @ t=188, gamma=0.1425, alpha=0.015
0.12973730155403138
% TCTL (m^2) @ t=189, gamma=0.1425, alpha=0.015
1.0179488706081399
% TCN (m^2) @ t=189, gamma=0.1425, alpha=0.015
0.13876103125354666
% TCTL (m^2) @ t=190, gamma=0.1425, alpha=0.015
1.0618481492982825
% TCN (m^2) @ t=190, gamma=0.1425, alpha=0.015
0.1480451184550256
% TCTL (m^2) @ t=191, gamma=0.1425, alpha=0.015
1.1076083267953636
% TCN (m^2) @ t=191, gamma=0.1425, alpha=0.015
0.15763780247399783
% TCTL (m^2) @ t=192, gamma=0.1425, alpha=0.015
1.1552978909872016
% TCN (m^2) @ t=192, gamma=0.1425, alpha=0.015
0.1675309152568124
% TCTL (m^2) @ t=193, gamma=0.1425, alpha=0.015
1.2049853297616206
% TCN (m^2) @ t=193, gamma=0.1425, alpha=0.015
0.17771628874981935
% TCTL (m^2) @ t=194, gamma=0.1425, alpha=0.015
1.2567579219878648
% TCN (m^2) @ t=194, gamma=0.1425, alpha=0.015
0.1881657652361413
% TCTL (m^2) @ t=195, gamma=0.1425, alpha=0.015
1.3108134108594096
% TCN (m^2) @ t=195, gamma=0.1425, alpha=0.015
0.19873367612538406
% TCTL (m^2) @ t=196, gamma=0.1425, alpha=0.015
1.3671590530639846
% TCN (m^2) @ t=196, gamma=0.1425, alpha=0.015
0.2094769905188883
% TCTL (m^2) @ t=197, gamma=0.1425, alpha=0.015
1.4258774782780224
% TCN (m^2) @ t=197, gamma=0.1425, alpha=0.015
0.22037249646586554
% TCTL (m^2) @ t=198, gamma=0.1425, alpha=0.015
1.4870513161779415
% TCN (m^2) @ t=198, gamma=0.1425, alpha=0.015
0.231396982015525
% TCTL (m^2) @ t=199, gamma=0.1425, alpha=0.015
1.5507898515292386
% TCN (m^2) @ t=199, gamma=0.1425, alpha=0.015
0.2425048015584119
% TCTL (m^2) @ t=200, gamma=0.1425, alpha=0.015
1.6173393982405873
% TCN (m^2) @ t=200, gamma=0.1425, alpha=0.015
0.25353498197609264
% TCTL (m^2) @ t=0, gamma=0.1425, alpha=0.0175
0.899990456744628
% TCN (m^2) @ t=0, gamma=0.1425, alpha=0.0175
4.638471034720432E-4
% TCTL (m^2) @ t=1, gamma=0.1425, alpha=0.0175
0.8809634604130613
% TCN (m^2) @ t=1, gamma=0.1425, alpha=0.0175
5.219067168440414E-4
% TCTL (m^2) @ t=2, gamma=0.1425, alpha=0.0175
0.8697980445917599
% TCN (m^2) @ t=2, gamma=0.1425, alpha=0.0175
5.875871023072654E-4
% TCTL (m^2) @ t=3, gamma=0.1425, alpha=0.0175
0.8644391460210878
% TCN (m^2) @ t=3, gamma=0.1425, alpha=0.0175
6.60169164579578E-4
% TCTL (m^2) @ t=4, gamma=0.1425, alpha=0.0175
0.8649469928561929
% TCN (m^2) @ t=4, gamma=0.1425, alpha=0.0175
7.414692149485145E-4
% TCTL (m^2) @ t=5, gamma=0.1425, alpha=0.0175
0.8710684430693396
% TCN (m^2) @ t=5, gamma=0.1425, alpha=0.0175
8.326567594634085E-4
% TCTL (m^2) @ t=6, gamma=0.1425, alpha=0.0175
0.8822293593794801
% TCN (m^2) @ t=6, gamma=0.1425, alpha=0.0175
9.346256317671191E-4
% TCTL (m^2) @ t=7, gamma=0.1425, alpha=0.0175
0.89807709535683
% TCN (m^2) @ t=7, gamma=0.1425, alpha=0.0175
0.0010485592584579468
% TCTL (m^2) @ t=8, gamma=0.1425, alpha=0.0175
0.9182906773143777
% TCN (m^2) @ t=8, gamma=0.1425, alpha=0.0175
0.001175490421105851
% TCTL (m^2) @ t=9, gamma=0.1425, alpha=0.0175
0.9423872422561448
% TCN (m^2) @ t=9, gamma=0.1425, alpha=0.0175
0.0013173315885746594
% TCTL (m^2) @ t=10, gamma=0.1425, alpha=0.0175
0.9701852304893577
% TCN (m^2) @ t=10, gamma=0.1425, alpha=0.0175
0.0014749244634740554
% TCTL (m^2) @ t=11, gamma=0.1425, alpha=0.0175
1.0013107975848041
% TCN (m^2) @ t=11, gamma=0.1425, alpha=0.0175
0.0016501474361766669
% TCTL (m^2) @ t=12, gamma=0.1425, alpha=0.0175
1.035696523226285
% TCN (m^2) @ t=12, gamma=0.1425, alpha=0.0175
0.0018451509059560752
% TCTL (m^2) @ t=13, gamma=0.1425, alpha=0.0175
1.0731261293062981
% TCN (m^2) @ t=13, gamma=0.1425, alpha=0.0175
0.002061717590559463
% TCTL (m^2) @ t=14, gamma=0.1425, alpha=0.0175
1.113442192842146
% TCN (m^2) @ t=14, gamma=0.1425, alpha=0.0175
0.0023018520046155415
% TCTL (m^2) @ t=15, gamma=0.1425, alpha=0.0175
1.156584491556686
% TCN (m^2) @ t=15, gamma=0.1425, alpha=0.0175
0.0025678362126969364
% TCTL (m^2) @ t=16, gamma=0.1425, alpha=0.0175
1.2023611703392567
% TCN (m^2) @ t=16, gamma=0.1425, alpha=0.0175
0.0028615764108540073
% TCTL (m^2) @ t=17, gamma=0.1425, alpha=0.0175
1.2507201906048546
% TCN (m^2) @ t=17, gamma=0.1425, alpha=0.0175
0.00318526958529871
% TCTL (m^2) @ t=18, gamma=0.1425, alpha=0.0175
1.3018176075377341
% TCN (m^2) @ t=18, gamma=0.1425, alpha=0.0175
0.0035414716320610485
% TCTL (m^2) @ t=19, gamma=0.1425, alpha=0.0175
1.3554739451396272
% TCN (m^2) @ t=19, gamma=0.1425, alpha=0.0175
0.003932159739619591
% TCTL (m^2) @ t=20, gamma=0.1425, alpha=0.0175
1.411720195287075
% TCN (m^2) @ t=20, gamma=0.1425, alpha=0.0175
0.004359395268043209
% TCTL (m^2) @ t=21, gamma=0.1425, alpha=0.0175
1.4707598040176149