% Model:              MODEL_SC_3_0.15_II.mph
% Version:            COMSOL 5.6.0.401
% Date:               May 21 2022, 13:15
% Dimension:          0
% Nodes:              12462
% Expressions:        12462
% Description:        , 
% TCTL (m^2) @ t=0, gamma=0.1525, alpha=0.015
0.8999923131904721
% TCN (m^2) @ t=0, gamma=0.1525, alpha=0.015
4.638411032752294E-4
% TCTL (m^2) @ t=1, gamma=0.1525, alpha=0.015
0.8843956121178783
% TCN (m^2) @ t=1, gamma=0.1525, alpha=0.015
5.047476621281517E-4
% TCTL (m^2) @ t=2, gamma=0.1525, alpha=0.015
0.8748792066722926
% TCN (m^2) @ t=2, gamma=0.1525, alpha=0.015
5.493954244163668E-4
% TCTL (m^2) @ t=3, gamma=0.1525, alpha=0.015
0.8700445320849342
% TCN (m^2) @ t=3, gamma=0.1525, alpha=0.015
5.974758138464404E-4
% TCTL (m^2) @ t=4, gamma=0.1525, alpha=0.015
0.870225336788879
% TCN (m^2) @ t=4, gamma=0.1525, alpha=0.015
6.499979171340511E-4
% TCTL (m^2) @ t=5, gamma=0.1525, alpha=0.015
0.8753159230377769
% TCN (m^2) @ t=5, gamma=0.1525, alpha=0.015
7.074023700138607E-4
% TCTL (m^2) @ t=6, gamma=0.1525, alpha=0.015
0.885111365167513
% TCN (m^2) @ t=6, gamma=0.1525, alpha=0.015
7.700083397264424E-4
% TCTL (m^2) @ t=7, gamma=0.1525, alpha=0.015
0.8994152500888764
% TCN (m^2) @ t=7, gamma=0.1525, alpha=0.015
8.385208330905873E-4
% TCTL (m^2) @ t=8, gamma=0.1525, alpha=0.015
0.918125325800204
% TCN (m^2) @ t=8, gamma=0.1525, alpha=0.015
9.133800599520408E-4
% TCTL (m^2) @ t=9, gamma=0.1525, alpha=0.015
0.9411282305883553
% TCN (m^2) @ t=9, gamma=0.1525, alpha=0.015
9.950412748962276E-4
% TCTL (m^2) @ t=10, gamma=0.1525, alpha=0.015
0.9682618188094123
% TCN (m^2) @ t=10, gamma=0.1525, alpha=0.015
0.0010841927171904154
% TCTL (m^2) @ t=11, gamma=0.1525, alpha=0.015
0.9994962903388291
% TCN (m^2) @ t=11, gamma=0.1525, alpha=0.015
0.0011814773859100108
% TCTL (m^2) @ t=12, gamma=0.1525, alpha=0.015
1.034762742876329
% TCN (m^2) @ t=12, gamma=0.1525, alpha=0.015
0.001287565779143325
% TCTL (m^2) @ t=13, gamma=0.1525, alpha=0.015
1.0739989733175066
% TCN (m^2) @ t=13, gamma=0.1525, alpha=0.015
0.0014031283577962174
% TCTL (m^2) @ t=14, gamma=0.1525, alpha=0.015
1.1172130689745743
% TCN (m^2) @ t=14, gamma=0.1525, alpha=0.015
0.0015288909728936797
% TCTL (m^2) @ t=15, gamma=0.1525, alpha=0.015
1.1643383478000153
% TCN (m^2) @ t=15, gamma=0.1525, alpha=0.015
0.001665525229762291
% TCTL (m^2) @ t=16, gamma=0.1525, alpha=0.015
1.2153909756936296
% TCN (m^2) @ t=16, gamma=0.1525, alpha=0.015
0.0018137117754444306
% TCTL (m^2) @ t=17, gamma=0.1525, alpha=0.015
1.2704813963920896
% TCN (m^2) @ t=17, gamma=0.1525, alpha=0.015
0.001974119258387956
% TCTL (m^2) @ t=18, gamma=0.1525, alpha=0.015
1.3295607669526528
% TCN (m^2) @ t=18, gamma=0.1525, alpha=0.015
0.0021474365992101077
% TCTL (m^2) @ t=19, gamma=0.1525, alpha=0.015
1.3927548638480034
% TCN (m^2) @ t=19, gamma=0.1525, alpha=0.015
0.0023340376731526887
% TCTL (m^2) @ t=20, gamma=0.1525, alpha=0.015
1.4601912004463735
% TCN (m^2) @ t=20, gamma=0.1525, alpha=0.015
0.0025342918708749114
% TCTL (m^2) @ t=21, gamma=0.1525, alpha=0.015
1.5318866488207639
% TCN (m^2) @ t=21, gamma=0.1525, alpha=0.015
0.0027488542536585753
% TCTL (m^2) @ t=22, gamma=0.1525, alpha=0.015
1.6080774254404555
% TCN (m^2) @ t=22, gamma=0.1525, alpha=0.015
0.0029771894895626273
% TCTL (m^2) @ t=23, gamma=0.1525, alpha=0.015
1.688875686610622
% TCN (m^2) @ t=23, gamma=0.1525, alpha=0.015
0.003219531365870741
% TCTL (m^2) @ t=24, gamma=0.1525, alpha=0.015
1.7743853257567221
% TCN (m^2) @ t=24, gamma=0.1525, alpha=0.015
0.0034761716800400366
% TCTL (m^2) @ t=25, gamma=0.1525, alpha=0.015
1.8650938825853602
% TCN (m^2) @ t=25, gamma=0.1525, alpha=0.015
0.0037453177647579954
% TCTL (m^2) @ t=26, gamma=0.1525, alpha=0.015
1.9612060249641847
% TCN (m^2) @ t=26, gamma=0.1525, alpha=0.015
0.004026699997123444
% TCTL (m^2) @ t=27, gamma=0.1525, alpha=0.015
2.063025215187204
% TCN (m^2) @ t=27, gamma=0.1525, alpha=0.015
0.0043193337368149926
% TCTL (m^2) @ t=28, gamma=0.1525, alpha=0.015
2.170738239213507
% TCN (m^2) @ t=28, gamma=0.1525, alpha=0.015
0.004622046047587298
% TCTL (m^2) @ t=29, gamma=0.1525, alpha=0.015
2.284704621880514
% TCN (m^2) @ t=29, gamma=0.1525, alpha=0.015
0.0049334407093814744
% TCTL (m^2) @ t=30, gamma=0.1525, alpha=0.015
2.405171824307031
% TCN (m^2) @ t=30, gamma=0.1525, alpha=0.015
0.005251646200574793
% TCTL (m^2) @ t=31, gamma=0.1525, alpha=0.015
2.5323046406957004
% TCN (m^2) @ t=31, gamma=0.1525, alpha=0.015
0.00557424239664114
% TCTL (m^2) @ t=32, gamma=0.1525, alpha=0.015
2.6663906803213355
% TCN (m^2) @ t=32, gamma=0.1525, alpha=0.015
0.005898968347031502
% TCTL (m^2) @ t=33, gamma=0.1525, alpha=0.015
2.8078223433194998
% TCN (m^2) @ t=33, gamma=0.1525, alpha=0.015
0.006223124749793261
% TCTL (m^2) @ t=34, gamma=0.1525, alpha=0.015
2.956991654526286
% TCN (m^2) @ t=34, gamma=0.1525, alpha=0.015
0.006543727819008787
% TCTL (m^2) @ t=35, gamma=0.1525, alpha=0.015
3.1142335101814105
% TCN (m^2) @ t=35, gamma=0.1525, alpha=0.015
0.0068575088873896895
% TCTL (m^2) @ t=36, gamma=0.1525, alpha=0.015
3.280100673205254
% TCN (m^2) @ t=36, gamma=0.1525, alpha=0.015
0.0071599339139254235
% TCTL (m^2) @ t=37, gamma=0.1525, alpha=0.015
3.4549575000721466
% TCN (m^2) @ t=37, gamma=0.1525, alpha=0.015
0.007447898800418299
% TCTL (m^2) @ t=38, gamma=0.1525, alpha=0.015
3.639224581303582
% TCN (m^2) @ t=38, gamma=0.1525, alpha=0.015
0.007717929658503646
% TCTL (m^2) @ t=39, gamma=0.1525, alpha=0.015
3.833531302103095
% TCN (m^2) @ t=39, gamma=0.1525, alpha=0.015
0.00796570998250754
% TCTL (m^2) @ t=40, gamma=0.1525, alpha=0.015
4.038269594274189
% TCN (m^2) @ t=40, gamma=0.1525, alpha=0.015
0.008187847163347447
% TCTL (m^2) @ t=41, gamma=0.1525, alpha=0.015
4.253989782539406
% TCN (m^2) @ t=41, gamma=0.1525, alpha=0.015
0.008380535737033006
% TCTL (m^2) @ t=42, gamma=0.1525, alpha=0.015
4.481399530560546
% TCN (m^2) @ t=42, gamma=0.1525, alpha=0.015
0.008539739554229283
% TCTL (m^2) @ t=43, gamma=0.1525, alpha=0.015
4.720955514382934
% TCN (m^2) @ t=43, gamma=0.1525, alpha=0.015
0.008661790455655495
% TCTL (m^2) @ t=44, gamma=0.1525, alpha=0.015
4.973367398625573
% TCN (m^2) @ t=44, gamma=0.1525, alpha=0.015
0.008745192406032836
% TCTL (m^2) @ t=45, gamma=0.1525, alpha=0.015
5.239367212982081
% TCN (m^2) @ t=45, gamma=0.1525, alpha=0.015
0.008788757168977307
% TCTL (m^2) @ t=46, gamma=0.1525, alpha=0.015
5.519509752339994
% TCN (m^2) @ t=46, gamma=0.1525, alpha=0.015
0.008788857317609575
% TCTL (m^2) @ t=47, gamma=0.1525, alpha=0.015
5.81471035683509
% TCN (m^2) @ t=47, gamma=0.1525, alpha=0.015
0.008742608685526908
% TCTL (m^2) @ t=48, gamma=0.1525, alpha=0.015
6.125695659057901
% TCN (m^2) @ t=48, gamma=0.1525, alpha=0.015
0.008647293581411034
% TCTL (m^2) @ t=49, gamma=0.1525, alpha=0.015
6.4531712759449995
% TCN (m^2) @ t=49, gamma=0.1525, alpha=0.015
0.008500360121395038
% TCTL (m^2) @ t=50, gamma=0.1525, alpha=0.015
6.800043562528199
% TCN (m^2) @ t=50, gamma=0.1525, alpha=0.015
0.008312512303894966
% TCTL (m^2) @ t=51, gamma=0.1525, alpha=0.015
7.164843691031884
% TCN (m^2) @ t=51, gamma=0.1525, alpha=0.015
0.008079011350402442
% TCTL (m^2) @ t=52, gamma=0.1525, alpha=0.015
7.548285703026096
% TCN (m^2) @ t=52, gamma=0.1525, alpha=0.015
0.0078024935936662175
% TCTL (m^2) @ t=53, gamma=0.1525, alpha=0.015
7.9532518821077725
% TCN (m^2) @ t=53, gamma=0.1525, alpha=0.015
0.007493600793153992
% TCTL (m^2) @ t=54, gamma=0.1525, alpha=0.015
8.378175515573142
% TCN (m^2) @ t=54, gamma=0.1525, alpha=0.015
0.007146548445298297
% TCTL (m^2) @ t=55, gamma=0.1525, alpha=0.015
8.824934746831872
% TCN (m^2) @ t=55, gamma=0.1525, alpha=0.015
0.006769515641924954
% TCTL (m^2) @ t=56, gamma=0.1525, alpha=0.015
9.295783919652035
% TCN (m^2) @ t=56, gamma=0.1525, alpha=0.015
0.006372319782807825
% TCTL (m^2) @ t=57, gamma=0.1525, alpha=0.015
9.789155727935494
% TCN (m^2) @ t=57, gamma=0.1525, alpha=0.015
0.005948135435751772
% TCTL (m^2) @ t=58, gamma=0.1525, alpha=0.015
10.307696275651097
% TCN (m^2) @ t=58, gamma=0.1525, alpha=0.015
0.005517207568418562
% TCTL (m^2) @ t=59, gamma=0.1525, alpha=0.015
10.851955548006034
% TCN (m^2) @ t=59, gamma=0.1525, alpha=0.015
0.005083744039934675
% TCTL (m^2) @ t=60, gamma=0.1525, alpha=0.015
11.42101726321722
% TCN (m^2) @ t=60, gamma=0.1525, alpha=0.015
0.004640734507816872
% TCTL (m^2) @ t=61, gamma=0.1525, alpha=0.015
12.017146905479464
% TCN (m^2) @ t=61, gamma=0.1525, alpha=0.015
0.004205622324556757
% TCTL (m^2) @ t=62, gamma=0.1525, alpha=0.015
12.63966284151144
% TCN (m^2) @ t=62, gamma=0.1525, alpha=0.015
0.0037731591773991656
% TCTL (m^2) @ t=63, gamma=0.1525, alpha=0.015
13.287701045729055
% TCN (m^2) @ t=63, gamma=0.1525, alpha=0.015
0.0033443650242546523
% TCTL (m^2) @ t=64, gamma=0.1525, alpha=0.015
13.954320858849012
% TCN (m^2) @ t=64, gamma=0.1525, alpha=0.015
0.0029460203297531993
% TCTL (m^2) @ t=65, gamma=0.1525, alpha=0.015
14.642995553976172
% TCN (m^2) @ t=65, gamma=0.1525, alpha=0.015
0.0025647235042565632
% TCTL (m^2) @ t=66, gamma=0.1525, alpha=0.015
15.330726999537552
% TCN (m^2) @ t=66, gamma=0.1525, alpha=0.015
0.002210620283241189
% TCTL (m^2) @ t=67, gamma=0.1525, alpha=0.015
16.006185686846543
% TCN (m^2) @ t=67, gamma=0.1525, alpha=0.015
0.0018887087335217028
% TCTL (m^2) @ t=68, gamma=0.1525, alpha=0.015
16.672010001972083
% TCN (m^2) @ t=68, gamma=0.1525, alpha=0.015
0.0015948921345852493
% TCTL (m^2) @ t=69, gamma=0.1525, alpha=0.015
17.243705897221073
% TCN (m^2) @ t=69, gamma=0.1525, alpha=0.015
0.001332946765299037
% TCTL (m^2) @ t=70, gamma=0.1525, alpha=0.015
17.75970769735102
% TCN (m^2) @ t=70, gamma=0.1525, alpha=0.015
0.0011011548865758826
% TCTL (m^2) @ t=71, gamma=0.1525, alpha=0.015
18.112459206839638
% TCN (m^2) @ t=71, gamma=0.1525, alpha=0.015
8.991189136539398E-4
% TCTL (m^2) @ t=72, gamma=0.1525, alpha=0.015
18.246875754954814
% TCN (m^2) @ t=72, gamma=0.1525, alpha=0.015
7.266352243653837E-4
% TCTL (m^2) @ t=73, gamma=0.1525, alpha=0.015
18.20536250193865
% TCN (m^2) @ t=73, gamma=0.1525, alpha=0.015
5.833443853457439E-4
% TCTL (m^2) @ t=74, gamma=0.1525, alpha=0.015
17.905317707979208
% TCN (m^2) @ t=74, gamma=0.1525, alpha=0.015
4.611806435423066E-4
% TCTL (m^2) @ t=75, gamma=0.1525, alpha=0.015
17.34641029673794
% TCN (m^2) @ t=75, gamma=0.1525, alpha=0.015
3.6011167058046137E-4
% TCTL (m^2) @ t=76, gamma=0.1525, alpha=0.015
16.572373900562212
% TCN (m^2) @ t=76, gamma=0.1525, alpha=0.015
2.779285820919005E-4
% TCTL (m^2) @ t=77, gamma=0.1525, alpha=0.015
15.638022999618675
% TCN (m^2) @ t=77, gamma=0.1525, alpha=0.015
2.124528818647573E-4
% TCTL (m^2) @ t=78, gamma=0.1525, alpha=0.015
14.53971863608737
% TCN (m^2) @ t=78, gamma=0.1525, alpha=0.015
1.6133197074002508E-4
% TCTL (m^2) @ t=79, gamma=0.1525, alpha=0.015
13.403725922495742
% TCN (m^2) @ t=79, gamma=0.1525, alpha=0.015
1.2236377651144787E-4
% TCTL (m^2) @ t=80, gamma=0.1525, alpha=0.015
12.245297333405592
% TCN (m^2) @ t=80, gamma=0.1525, alpha=0.015
9.326050822007777E-5
% TCTL (m^2) @ t=81, gamma=0.1525, alpha=0.015
11.147710690022546
% TCN (m^2) @ t=81, gamma=0.1525, alpha=0.015
7.056844650326116E-5
% TCTL (m^2) @ t=82, gamma=0.1525, alpha=0.015
10.11171639195054
% TCN (m^2) @ t=82, gamma=0.1525, alpha=0.015
5.391133869956153E-5
% TCTL (m^2) @ t=83, gamma=0.1525, alpha=0.015
9.171938633070754
% TCN (m^2) @ t=83, gamma=0.1525, alpha=0.015
4.088523818835982E-5
% TCTL (m^2) @ t=84, gamma=0.1525, alpha=0.015
8.307329874169973
% TCN (m^2) @ t=84, gamma=0.1525, alpha=0.015
3.1000406448275286E-5
% TCTL (m^2) @ t=85, gamma=0.1525, alpha=0.015
7.5174485273644365
% TCN (m^2) @ t=85, gamma=0.1525, alpha=0.015
2.3848519023110307E-5
% TCTL (m^2) @ t=86, gamma=0.1525, alpha=0.015
6.800612536003266
% TCN (m^2) @ t=86, gamma=0.1525, alpha=0.015
1.8655352279313654E-5
% TCTL (m^2) @ t=87, gamma=0.1525, alpha=0.015
6.151699841507077
% TCN (m^2) @ t=87, gamma=0.1525, alpha=0.015
1.5005276881269068E-5
% TCTL (m^2) @ t=88, gamma=0.1525, alpha=0.015
5.565759533364309
% TCN (m^2) @ t=88, gamma=0.1525, alpha=0.015
1.2543090636315573E-5
% TCTL (m^2) @ t=89, gamma=0.1525, alpha=0.015
5.034934854069704
% TCN (m^2) @ t=89, gamma=0.1525, alpha=0.015
1.0826381646335446E-5
% TCTL (m^2) @ t=90, gamma=0.1525, alpha=0.015
4.554730572024939
% TCN (m^2) @ t=90, gamma=0.1525, alpha=0.015
9.463595078754323E-6
% TCTL (m^2) @ t=91, gamma=0.1525, alpha=0.015
4.119631457457255
% TCN (m^2) @ t=91, gamma=0.1525, alpha=0.015
8.419849902185366E-6
% TCTL (m^2) @ t=92, gamma=0.1525, alpha=0.015
3.7258528533934556
% TCN (m^2) @ t=92, gamma=0.1525, alpha=0.015
7.652412542063604E-6
% TCTL (m^2) @ t=93, gamma=0.1525, alpha=0.015
3.369668824483206
% TCN (m^2) @ t=93, gamma=0.1525, alpha=0.015
7.11275192883809E-6
% TCTL (m^2) @ t=94, gamma=0.1525, alpha=0.015
3.048130675250492
% TCN (m^2) @ t=94, gamma=0.1525, alpha=0.015
6.767134148152918E-6
% TCTL (m^2) @ t=95, gamma=0.1525, alpha=0.015
2.757836283197064
% TCN (m^2) @ t=95, gamma=0.1525, alpha=0.015
6.580465687485227E-6
% TCTL (m^2) @ t=96, gamma=0.1525, alpha=0.015
2.495906027280445
% TCN (m^2) @ t=96, gamma=0.1525, alpha=0.015
6.528996149243172E-6
% TCTL (m^2) @ t=97, gamma=0.1525, alpha=0.015
2.2591472693613186
% TCN (m^2) @ t=97, gamma=0.1525, alpha=0.015
6.591943155299953E-6
% TCTL (m^2) @ t=98, gamma=0.1525, alpha=0.015
2.044926418815411
% TCN (m^2) @ t=98, gamma=0.1525, alpha=0.015
6.7549330685788644E-6
% TCTL (m^2) @ t=99, gamma=0.1525, alpha=0.015
1.8517588679297443
% TCN (m^2) @ t=99, gamma=0.1525, alpha=0.015
7.043981010821139E-6
% TCTL (m^2) @ t=100, gamma=0.1525, alpha=0.015
1.6767752349365952
% TCN (m^2) @ t=100, gamma=0.1525, alpha=0.015
7.440832563266113E-6
% TCTL (m^2) @ t=101, gamma=0.1525, alpha=0.015
1.5184854426375733
% TCN (m^2) @ t=101, gamma=0.1525, alpha=0.015
7.969474006692342E-6
% TCTL (m^2) @ t=102, gamma=0.1525, alpha=0.015
1.3759682654953433
% TCN (m^2) @ t=102, gamma=0.1525, alpha=0.015
8.670987393034746E-6
% TCTL (m^2) @ t=103, gamma=0.1525, alpha=0.015
1.24684439288657
% TCN (m^2) @ t=103, gamma=0.1525, alpha=0.015
9.542634758108107E-6
% TCTL (m^2) @ t=104, gamma=0.1525, alpha=0.015
1.1301415080886652
% TCN (m^2) @ t=104, gamma=0.1525, alpha=0.015
1.0608014068715554E-5
% TCTL (m^2) @ t=105, gamma=0.1525, alpha=0.015
1.024618671347825
% TCN (m^2) @ t=105, gamma=0.1525, alpha=0.015
1.1887638267869248E-5
% TCTL (m^2) @ t=106, gamma=0.1525, alpha=0.015
0.9285414850107516
% TCN (m^2) @ t=106, gamma=0.1525, alpha=0.015
1.3396353139838701E-5
% TCTL (m^2) @ t=107, gamma=0.1525, alpha=0.015
0.8419172106573746
% TCN (m^2) @ t=107, gamma=0.1525, alpha=0.015
1.5239033576411233E-5
% TCTL (m^2) @ t=108, gamma=0.1525, alpha=0.015
0.7635449401949119
% TCN (m^2) @ t=108, gamma=0.1525, alpha=0.015
1.7450093490065188E-5
% TCTL (m^2) @ t=109, gamma=0.1525, alpha=0.015
0.6922333198390279
% TCN (m^2) @ t=109, gamma=0.1525, alpha=0.015
2.006525215743498E-5
% TCTL (m^2) @ t=110, gamma=0.1525, alpha=0.015
0.6279834860155407
% TCN (m^2) @ t=110, gamma=0.1525, alpha=0.015
2.3235364540241462E-5
% TCTL (m^2) @ t=111, gamma=0.1525, alpha=0.015
0.5696466247187733
% TCN (m^2) @ t=111, gamma=0.1525, alpha=0.015
2.699338488544276E-5
% TCTL (m^2) @ t=112, gamma=0.1525, alpha=0.015
0.5165090847691935
% TCN (m^2) @ t=112, gamma=0.1525, alpha=0.015
3.1424367850741874E-5
% TCTL (m^2) @ t=113, gamma=0.1525, alpha=0.015
0.46839541497540366
% TCN (m^2) @ t=113, gamma=0.1525, alpha=0.015
3.671693106726325E-5
% TCTL (m^2) @ t=114, gamma=0.1525, alpha=0.015
0.4246669293288803
% TCN (m^2) @ t=114, gamma=0.1525, alpha=0.015
4.297055434355358E-5
% TCTL (m^2) @ t=115, gamma=0.1525, alpha=0.015
0.38495354426438666
% TCN (m^2) @ t=115, gamma=0.1525, alpha=0.015
5.0364132461764154E-5
% TCTL (m^2) @ t=116, gamma=0.1525, alpha=0.015
0.34903854126177986
% TCN (m^2) @ t=116, gamma=0.1525, alpha=0.015
5.9168974183602534E-5
% TCTL (m^2) @ t=117, gamma=0.1525, alpha=0.015
0.3166853589920471
% TCN (m^2) @ t=117, gamma=0.1525, alpha=0.015
6.959169149086384E-5
% TCTL (m^2) @ t=118, gamma=0.1525, alpha=0.015
0.2876278749374121
% TCN (m^2) @ t=118, gamma=0.1525, alpha=0.015
8.194791612019875E-5
% TCTL (m^2) @ t=119, gamma=0.1525, alpha=0.015
0.26157591487803306
% TCN (m^2) @ t=119, gamma=0.1525, alpha=0.015
9.661783962458485E-5
% TCTL (m^2) @ t=120, gamma=0.1525, alpha=0.015
0.23845263956724308
% TCN (m^2) @ t=120, gamma=0.1525, alpha=0.015
1.1395786321221135E-4
% TCTL (m^2) @ t=121, gamma=0.1525, alpha=0.015
0.2180275542377035
% TCN (m^2) @ t=121, gamma=0.1525, alpha=0.015
1.344974168001283E-4
% TCTL (m^2) @ t=122, gamma=0.1525, alpha=0.015
0.20012745806763285
% TCN (m^2) @ t=122, gamma=0.1525, alpha=0.015
1.5879565528510243E-4
% TCTL (m^2) @ t=123, gamma=0.1525, alpha=0.015
0.18466185221351727
% TCN (m^2) @ t=123, gamma=0.1525, alpha=0.015
1.8742095256591654E-4
% TCTL (m^2) @ t=124, gamma=0.1525, alpha=0.015
0.17149282034281715
% TCN (m^2) @ t=124, gamma=0.1525, alpha=0.015
2.212507010982739E-4
% TCTL (m^2) @ t=125, gamma=0.1525, alpha=0.015
0.16053184257134673
% TCN (m^2) @ t=125, gamma=0.1525, alpha=0.015
2.6108670251410163E-4
% TCTL (m^2) @ t=126, gamma=0.1525, alpha=0.015
0.1517049267871927
% TCN (m^2) @ t=126, gamma=0.1525, alpha=0.015
3.0784098912345597E-4
% TCTL (m^2) @ t=127, gamma=0.1525, alpha=0.015
0.14489026169789807
% TCN (m^2) @ t=127, gamma=0.1525, alpha=0.015
3.6287502618316807E-4
% TCTL (m^2) @ t=128, gamma=0.1525, alpha=0.015
0.1400381039877807
% TCN (m^2) @ t=128, gamma=0.1525, alpha=0.015
4.2734767734989407E-4
% TCTL (m^2) @ t=129, gamma=0.1525, alpha=0.015
0.13706986663307386
% TCN (m^2) @ t=129, gamma=0.1525, alpha=0.015
5.026893464553998E-4
% TCTL (m^2) @ t=130, gamma=0.1525, alpha=0.015
0.13578636170084343
% TCN (m^2) @ t=130, gamma=0.1525, alpha=0.015
5.907563845150678E-4
% TCTL (m^2) @ t=131, gamma=0.1525, alpha=0.015
0.13607211971127006
% TCN (m^2) @ t=131, gamma=0.1525, alpha=0.015
6.933624614375521E-4
% TCTL (m^2) @ t=132, gamma=0.1525, alpha=0.015
0.13777307193602534
% TCN (m^2) @ t=132, gamma=0.1525, alpha=0.015
8.126868354840258E-4
% TCTL (m^2) @ t=133, gamma=0.1525, alpha=0.015
0.1407569212716406
% TCN (m^2) @ t=133, gamma=0.1525, alpha=0.015
9.51295437923784E-4
% TCTL (m^2) @ t=134, gamma=0.1525, alpha=0.015
0.1448163466959832
% TCN (m^2) @ t=134, gamma=0.1525, alpha=0.015
0.0011119296487172845
% TCTL (m^2) @ t=135, gamma=0.1525, alpha=0.015
0.14985016768598325
% TCN (m^2) @ t=135, gamma=0.1525, alpha=0.015
0.0012977870279974745
% TCTL (m^2) @ t=136, gamma=0.1525, alpha=0.015
0.15579596351522698
% TCN (m^2) @ t=136, gamma=0.1525, alpha=0.015
0.0015123571282407147
% TCTL (m^2) @ t=137, gamma=0.1525, alpha=0.015
0.1624902646023204
% TCN (m^2) @ t=137, gamma=0.1525, alpha=0.015
0.0017593490197285074
% TCTL (m^2) @ t=138, gamma=0.1525, alpha=0.015
0.16991011591984911
% TCN (m^2) @ t=138, gamma=0.1525, alpha=0.015
0.0020433074778828434
% TCTL (m^2) @ t=139, gamma=0.1525, alpha=0.015
0.17801540363630683
% TCN (m^2) @ t=139, gamma=0.1525, alpha=0.015
0.002368971517693841
% TCTL (m^2) @ t=140, gamma=0.1525, alpha=0.015
0.18675740594513268
% TCN (m^2) @ t=140, gamma=0.1525, alpha=0.015
0.002741318442018656
% TCTL (m^2) @ t=141, gamma=0.1525, alpha=0.015
0.19615141379687617
% TCN (m^2) @ t=141, gamma=0.1525, alpha=0.015
0.003166523343142602
% TCTL (m^2) @ t=142, gamma=0.1525, alpha=0.015
0.20621106293479752
% TCN (m^2) @ t=142, gamma=0.1525, alpha=0.015
0.0036506425439286052
% TCTL (m^2) @ t=143, gamma=0.1525, alpha=0.015
0.21696977674870835
% TCN (m^2) @ t=143, gamma=0.1525, alpha=0.015
0.0042003563049976995
% TCTL (m^2) @ t=144, gamma=0.1525, alpha=0.015
0.22840245345959664
% TCN (m^2) @ t=144, gamma=0.1525, alpha=0.015
0.004823597488816902
% TCTL (m^2) @ t=145, gamma=0.1525, alpha=0.015
0.24057268102444201
% TCN (m^2) @ t=145, gamma=0.1525, alpha=0.015
0.005528120956952539
% TCTL (m^2) @ t=146, gamma=0.1525, alpha=0.015
0.2535127686374255
% TCN (m^2) @ t=146, gamma=0.1525, alpha=0.015
0.006322569695600498
% TCTL (m^2) @ t=147, gamma=0.1525, alpha=0.015
0.2671905113894718
% TCN (m^2) @ t=147, gamma=0.1525, alpha=0.015
0.007216600754430631
% TCTL (m^2) @ t=148, gamma=0.1525, alpha=0.015
0.28165622285291975
% TCN (m^2) @ t=148, gamma=0.1525, alpha=0.015
0.008219985752828382
% TCTL (m^2) @ t=149, gamma=0.1525, alpha=0.015
0.2969279040367664
% TCN (m^2) @ t=149, gamma=0.1525, alpha=0.015
0.009343376180697225
% TCTL (m^2) @ t=150, gamma=0.1525, alpha=0.015
0.3130141881212454
% TCN (m^2) @ t=150, gamma=0.1525, alpha=0.015
0.010598184649923823
% TCTL (m^2) @ t=151, gamma=0.1525, alpha=0.015
0.3299377190056455
% TCN (m^2) @ t=151, gamma=0.1525, alpha=0.015
0.01199626688998285
% TCTL (m^2) @ t=152, gamma=0.1525, alpha=0.015
0.34775800580708993
% TCN (m^2) @ t=152, gamma=0.1525, alpha=0.015
0.013549873372805334
% TCTL (m^2) @ t=153, gamma=0.1525, alpha=0.015
0.3665453669583148
% TCN (m^2) @ t=153, gamma=0.1525, alpha=0.015
0.015271811285888826
% TCTL (m^2) @ t=154, gamma=0.1525, alpha=0.015
0.3863463070374555
% TCN (m^2) @ t=154, gamma=0.1525, alpha=0.015
0.01717570136929073
% TCTL (m^2) @ t=155, gamma=0.1525, alpha=0.015
0.40722786194918953
% TCN (m^2) @ t=155, gamma=0.1525, alpha=0.015
0.019275648960107666
% TCTL (m^2) @ t=156, gamma=0.1525, alpha=0.015
0.4292646330923431
% TCN (m^2) @ t=156, gamma=0.1525, alpha=0.015
0.021586340173887518
% TCTL (m^2) @ t=157, gamma=0.1525, alpha=0.015
0.45253878735989306
% TCN (m^2) @ t=157, gamma=0.1525, alpha=0.015
0.024123041904629654
% TCTL (m^2) @ t=158, gamma=0.1525, alpha=0.015
0.47696860189452384
% TCN (m^2) @ t=158, gamma=0.1525, alpha=0.015
0.02689416174879033
% TCTL (m^2) @ t=159, gamma=0.1525, alpha=0.015
0.5026899710233133
% TCN (m^2) @ t=159, gamma=0.1525, alpha=0.015
0.02991780299953604
% TCTL (m^2) @ t=160, gamma=0.1525, alpha=0.015
0.529767235106042
% TCN (m^2) @ t=160, gamma=0.1525, alpha=0.015
0.03320921644297836
% TCTL (m^2) @ t=161, gamma=0.1525, alpha=0.015
0.5582648641555441
% TCN (m^2) @ t=161, gamma=0.1525, alpha=0.015
0.03678391097508492
% TCTL (m^2) @ t=162, gamma=0.1525, alpha=0.015
0.5882494696408866
% TCN (m^2) @ t=162, gamma=0.1525, alpha=0.015
0.04065774090124616
% TCTL (m^2) @ t=163, gamma=0.1525, alpha=0.015
0.6198219268734322
% TCN (m^2) @ t=163, gamma=0.1525, alpha=0.015
0.04483903735755587
% TCTL (m^2) @ t=164, gamma=0.1525, alpha=0.015
0.6531315963677602
% TCN (m^2) @ t=164, gamma=0.1525, alpha=0.015
0.04932512469979741
% TCTL (m^2) @ t=165, gamma=0.1525, alpha=0.015
0.6882254819969083
% TCN (m^2) @ t=165, gamma=0.1525, alpha=0.015
0.05413927015367924
% TCTL (m^2) @ t=166, gamma=0.1525, alpha=0.015
0.7252009423981829
% TCN (m^2) @ t=166, gamma=0.1525, alpha=0.015
0.059293276203963054
% TCTL (m^2) @ t=167, gamma=0.1525, alpha=0.015
0.7641597875133708
% TCN (m^2) @ t=167, gamma=0.1525, alpha=0.015
0.06479872493310626
% TCTL (m^2) @ t=168, gamma=0.1525, alpha=0.015
0.8052082785887329
% TCN (m^2) @ t=168, gamma=0.1525, alpha=0.015
0.07066697802126427
% TCTL (m^2) @ t=169, gamma=0.1525, alpha=0.015
0.8484589582857677
% TCN (m^2) @ t=169, gamma=0.1525, alpha=0.015
0.076872567527313
% TCTL (m^2) @ t=170, gamma=0.1525, alpha=0.015
0.8940274966075962
% TCN (m^2) @ t=170, gamma=0.1525, alpha=0.015
0.08341628943158927
% TCTL (m^2) @ t=171, gamma=0.1525, alpha=0.015
0.9420333469246996
% TCN (m^2) @ t=171, gamma=0.1525, alpha=0.015
0.09031208061065267
% TCTL (m^2) @ t=172, gamma=0.1525, alpha=0.015
0.9926010905106235
% TCN (m^2) @ t=172, gamma=0.1525, alpha=0.015
0.09756012297774505
% TCTL (m^2) @ t=173, gamma=0.1525, alpha=0.015
1.0458598082483515
% TCN (m^2) @ t=173, gamma=0.1525, alpha=0.015
0.10515941175960798
% TCTL (m^2) @ t=174, gamma=0.1525, alpha=0.015
1.101944686041391
% TCN (m^2) @ t=174, gamma=0.1525, alpha=0.015
0.11310575509113505
% TCTL (m^2) @ t=175, gamma=0.1525, alpha=0.015
1.1610700049953369
% TCN (m^2) @ t=175, gamma=0.1525, alpha=0.015
0.12130082537831503
% TCTL (m^2) @ t=176, gamma=0.1525, alpha=0.015
1.2233498537099843
% TCN (m^2) @ t=176, gamma=0.1525, alpha=0.015
0.12977555883395103
% TCTL (m^2) @ t=177, gamma=0.1525, alpha=0.015
1.2889440926527858
% TCN (m^2) @ t=177, gamma=0.1525, alpha=0.015
0.13850827812728544
% TCTL (m^2) @ t=178, gamma=0.1525, alpha=0.015
1.3580183593091428
% TCN (m^2) @ t=178, gamma=0.1525, alpha=0.015
0.14747452753983978
% TCTL (m^2) @ t=179, gamma=0.1525, alpha=0.015
1.4307440681823749
% TCN (m^2) @ t=179, gamma=0.1525, alpha=0.015
0.15664707296541366
% TCTL (m^2) @ t=180, gamma=0.1525, alpha=0.015
1.5073399174022089
% TCN (m^2) @ t=180, gamma=0.1525, alpha=0.015
0.16597426643958194
% TCTL (m^2) @ t=181, gamma=0.1525, alpha=0.015
1.588067849865296
% TCN (m^2) @ t=181, gamma=0.1525, alpha=0.015
0.17538215140987073
% TCTL (m^2) @ t=182, gamma=0.1525, alpha=0.015
1.6730873599602654
% TCN (m^2) @ t=182, gamma=0.1525, alpha=0.015
0.18485040588479662
% TCTL (m^2) @ t=183, gamma=0.1525, alpha=0.015
1.7626154732284651
% TCN (m^2) @ t=183, gamma=0.1525, alpha=0.015
0.19432895245431575
% TCTL (m^2) @ t=184, gamma=0.1525, alpha=0.015
1.8568771656784535
% TCN (m^2) @ t=184, gamma=0.1525, alpha=0.015
0.2037638024023193
% TCTL (m^2) @ t=185, gamma=0.1525, alpha=0.015
1.9561053637860524
% TCN (m^2) @ t=185, gamma=0.1525, alpha=0.015
0.21309705570662982
% TCTL (m^2) @ t=186, gamma=0.1525, alpha=0.015
2.0607985579345995
% TCN (m^2) @ t=186, gamma=0.1525, alpha=0.015
0.22217440200095695
% TCTL (m^2) @ t=187, gamma=0.1525, alpha=0.015
2.1711467129049025
% TCN (m^2) @ t=187, gamma=0.1525, alpha=0.015
0.23095854552596073
% TCTL (m^2) @ t=188, gamma=0.1525, alpha=0.015
2.2873110028143144
% TCN (m^2) @ t=188, gamma=0.1525, alpha=0.015
0.23942048176877162
% TCTL (m^2) @ t=189, gamma=0.1525, alpha=0.015
2.4095340660152256
% TCN (m^2) @ t=189, gamma=0.1525, alpha=0.015
0.2475012344244246
% TCTL (m^2) @ t=190, gamma=0.1525, alpha=0.015
2.538058540860006
% TCN (m^2) @ t=190, gamma=0.1525, alpha=0.015
0.255141827187954
% TCTL (m^2) @ t=191, gamma=0.1525, alpha=0.015
2.6747644928213052
% TCN (m^2) @ t=191, gamma=0.1525, alpha=0.015
0.26187236912358025
% TCTL (m^2) @ t=192, gamma=0.1525, alpha=0.015
2.818376635091744
% TCN (m^2) @ t=192, gamma=0.1525, alpha=0.015
0.2680106052884684
% TCTL (m^2) @ t=193, gamma=0.1525, alpha=0.015
2.9688309296343105
% TCN (m^2) @ t=193, gamma=0.1525, alpha=0.015
0.2735725457568153
% TCTL (m^2) @ t=194, gamma=0.1525, alpha=0.015
3.128499184270279
% TCN (m^2) @ t=194, gamma=0.1525, alpha=0.015
0.2780949421928527
% TCTL (m^2) @ t=195, gamma=0.1525, alpha=0.015
3.2974835491682644
% TCN (m^2) @ t=195, gamma=0.1525, alpha=0.015
0.2815578431927722
% TCTL (m^2) @ t=196, gamma=0.1525, alpha=0.015
3.475022511137512
% TCN (m^2) @ t=196, gamma=0.1525, alpha=0.015
0.2841099832851943
% TCTL (m^2) @ t=197, gamma=0.1525, alpha=0.015
3.662238793406451
% TCN (m^2) @ t=197, gamma=0.1525, alpha=0.015
0.2856575419547328
% TCTL (m^2) @ t=198, gamma=0.1525, alpha=0.015
3.8604383886068963
% TCN (m^2) @ t=198, gamma=0.1525, alpha=0.015
0.2860913837540137
% TCTL (m^2) @ t=199, gamma=0.1525, alpha=0.015
4.068574831607321
% TCN (m^2) @ t=199, gamma=0.1525, alpha=0.015
0.2854989566804509
% TCTL (m^2) @ t=200, gamma=0.1525, alpha=0.015
4.287232767403529
% TCN (m^2) @ t=200, gamma=0.1525, alpha=0.015
0.2838555559201312
% TCTL (m^2) @ t=0, gamma=0.1525, alpha=0.0175
0.8999923134565004
% TCN (m^2) @ t=0, gamma=0.1525, alpha=0.0175
4.6384710342840373E-4
% TCTL (m^2) @ t=1, gamma=0.1525, alpha=0.0175
0.8856974726699007
% TCN (m^2) @ t=1, gamma=0.1525, alpha=0.0175
5.215698329443974E-4
% TCTL (m^2) @ t=2, gamma=0.1525, alpha=0.0175
0.8796198235473907
% TCN (m^2) @ t=2, gamma=0.1525, alpha=0.0175
5.863783737647739E-4
% TCTL (m^2) @ t=3, gamma=0.1525, alpha=0.0175
0.879728792575627
% TCN (m^2) @ t=3, gamma=0.1525, alpha=0.0175
6.575557164618461E-4
% TCTL (m^2) @ t=4, gamma=0.1525, alpha=0.0175
0.8862591776622308
% TCN (m^2) @ t=4, gamma=0.1525, alpha=0.0175
7.368889976499819E-4
% TCTL (m^2) @ t=5, gamma=0.1525, alpha=0.0175
0.898936350310571
% TCN (m^2) @ t=5, gamma=0.1525, alpha=0.0175
8.251745917665387E-4
% TCTL (m^2) @ t=6, gamma=0.1525, alpha=0.0175
0.9173753097646061
% TCN (m^2) @ t=6, gamma=0.1525, alpha=0.0175
9.230122116986252E-4
% TCTL (m^2) @ t=7, gamma=0.1525, alpha=0.0175
0.9411340829987946
% TCN (m^2) @ t=7, gamma=0.1525, alpha=0.0175
0.001031773946497808
% TCTL (m^2) @ t=8, gamma=0.1525, alpha=0.0175
0.969996447595576
% TCN (m^2) @ t=8, gamma=0.1525, alpha=0.0175
0.001152373860963625
% TCTL (m^2) @ t=9, gamma=0.1525, alpha=0.0175
1.0037344538874386
% TCN (m^2) @ t=9, gamma=0.1525, alpha=0.0175
0.0012858058609245841
% TCTL (m^2) @ t=10, gamma=0.1525, alpha=0.0175
1.0420767322342086
% TCN (m^2) @ t=10, gamma=0.1525, alpha=0.0175
0.0014338252211545273
% TCTL (m^2) @ t=11, gamma=0.1525, alpha=0.0175
1.0848481408530244
% TCN (m^2) @ t=11, gamma=0.1525, alpha=0.0175
0.0015974728223055873
% TCTL (m^2) @ t=12, gamma=0.1525, alpha=0.0175
1.1319322315720286
% TCN (m^2) @ t=12, gamma=0.1525, alpha=0.0175
0.0017782059646458427
% TCTL (m^2) @ t=13, gamma=0.1525, alpha=0.0175
1.1832531457815054
% TCN (m^2) @ t=13, gamma=0.1525, alpha=0.0175
0.001977569258859713
% TCTL (m^2) @ t=14, gamma=0.1525, alpha=0.0175
1.2386228508368884
% TCN (m^2) @ t=14, gamma=0.1525, alpha=0.0175
0.0021968660230142923
% TCTL (m^2) @ t=15, gamma=0.1525, alpha=0.0175
1.298202715201511
% TCN (m^2) @ t=15, gamma=0.1525, alpha=0.0175
0.002438111303160518
% TCTL (m^2) @ t=16, gamma=0.1525, alpha=0.0175
1.3619721586427178
% TCN (m^2) @ t=16, gamma=0.1525, alpha=0.0175
0.0027029523783329698
% TCTL (m^2) @ t=17, gamma=0.1525, alpha=0.0175
1.429836620961013
% TCN (m^2) @ t=17, gamma=0.1525, alpha=0.0175
0.0029928869942511503
% TCTL (m^2) @ t=18, gamma=0.1525, alpha=0.0175
1.5021535577649483
% TCN (m^2) @ t=18, gamma=0.1525, alpha=0.0175
0.003309391253437072
% TCTL (m^2) @ t=19, gamma=0.1525, alpha=0.0175
1.578855616261885
% TCN (m^2) @ t=19, gamma=0.1525, alpha=0.0175
0.003654083472792242
% TCTL (m^2) @ t=20, gamma=0.1525, alpha=0.0175
1.6600385092577765
% TCN (m^2) @ t=20, gamma=0.1525, alpha=0.0175
0.004028223465397452
% TCTL (m^2) @ t=21, gamma=0.1525, alpha=0.0175
1.7460016727194736