% Model:              MODEL_SC_3_0.15_II.mph
% Version:            COMSOL 5.6.0.401
% Date:               May 21 2022, 13:17
% Dimension:          0
% Nodes:              12462
% Expressions:        12462
% Description:        , 
% TCTL (m^2) @ t=0, gamma=0.1625, alpha=0.015
0.899994169890644
% TCN (m^2) @ t=0, gamma=0.1625, alpha=0.015
4.6384110323159015E-4
% TCTL (m^2) @ t=1, gamma=0.1625, alpha=0.015
0.889171765773291
% TCN (m^2) @ t=1, gamma=0.1625, alpha=0.015
5.045194197960665E-4
% TCTL (m^2) @ t=2, gamma=0.1625, alpha=0.015
0.8845197160434114
% TCN (m^2) @ t=2, gamma=0.1625, alpha=0.015
5.484147446577183E-4
% TCTL (m^2) @ t=3, gamma=0.1625, alpha=0.015
0.8848676493472574
% TCN (m^2) @ t=3, gamma=0.1625, alpha=0.015
5.953831509241113E-4
% TCTL (m^2) @ t=4, gamma=0.1625, alpha=0.015
0.8906466550823049
% TCN (m^2) @ t=4, gamma=0.1625, alpha=0.015
6.463190078011692E-4
% TCTL (m^2) @ t=5, gamma=0.1625, alpha=0.015
0.9017029711478217
% TCN (m^2) @ t=5, gamma=0.1625, alpha=0.015
7.015400431570304E-4
% TCTL (m^2) @ t=6, gamma=0.1625, alpha=0.015
0.9179324594489355
% TCN (m^2) @ t=6, gamma=0.1625, alpha=0.015
7.613805266669444E-4
% TCTL (m^2) @ t=7, gamma=0.1625, alpha=0.015
0.939257218336547
% TCN (m^2) @ t=7, gamma=0.1625, alpha=0.015
8.263219261660358E-4
% TCTL (m^2) @ t=8, gamma=0.1625, alpha=0.015
0.9656175020135979
% TCN (m^2) @ t=8, gamma=0.1625, alpha=0.015
8.969178682744477E-4
% TCTL (m^2) @ t=9, gamma=0.1625, alpha=0.015
0.9969853791677604
% TCN (m^2) @ t=9, gamma=0.1625, alpha=0.015
9.73512642656803E-4
% TCTL (m^2) @ t=10, gamma=0.1625, alpha=0.015
1.0333586612338357
% TCN (m^2) @ t=10, gamma=0.1625, alpha=0.015
0.001056661074610681
% TCTL (m^2) @ t=11, gamma=0.1625, alpha=0.015
1.0748118154162203
% TCN (m^2) @ t=11, gamma=0.1625, alpha=0.015
0.00114693642471266
% TCTL (m^2) @ t=12, gamma=0.1625, alpha=0.015
1.1213717577128222
% TCN (m^2) @ t=12, gamma=0.1625, alpha=0.015
0.0012448691810890576
% TCTL (m^2) @ t=13, gamma=0.1625, alpha=0.015
1.173151224064572
% TCN (m^2) @ t=13, gamma=0.1625, alpha=0.015
0.0013510121655401532
% TCTL (m^2) @ t=14, gamma=0.1625, alpha=0.015
1.2301995493346018
% TCN (m^2) @ t=14, gamma=0.1625, alpha=0.015
0.0014659131816025677
% TCTL (m^2) @ t=15, gamma=0.1625, alpha=0.015
1.2926345088491824
% TCN (m^2) @ t=15, gamma=0.1625, alpha=0.015
0.0015900908404936822
% TCTL (m^2) @ t=16, gamma=0.1625, alpha=0.015
1.360692480784467
% TCN (m^2) @ t=16, gamma=0.1625, alpha=0.015
0.001723999835278378
% TCTL (m^2) @ t=17, gamma=0.1625, alpha=0.015
1.4344398367218794
% TCN (m^2) @ t=17, gamma=0.1625, alpha=0.015
0.0018681882534492258
% TCTL (m^2) @ t=18, gamma=0.1625, alpha=0.015
1.5141733495808898
% TCN (m^2) @ t=18, gamma=0.1625, alpha=0.015
0.00202271669836518
% TCTL (m^2) @ t=19, gamma=0.1625, alpha=0.015
1.6001145153653769
% TCN (m^2) @ t=19, gamma=0.1625, alpha=0.015
0.0021878429548505187
% TCTL (m^2) @ t=20, gamma=0.1625, alpha=0.015
1.6924452737416846
% TCN (m^2) @ t=20, gamma=0.1625, alpha=0.015
0.002363874307747919
% TCTL (m^2) @ t=21, gamma=0.1625, alpha=0.015
1.7916277398636558
% TCN (m^2) @ t=21, gamma=0.1625, alpha=0.015
0.0025498429652065766
% TCTL (m^2) @ t=22, gamma=0.1625, alpha=0.015
1.8978480000238025
% TCN (m^2) @ t=22, gamma=0.1625, alpha=0.015
0.002746115624804266
% TCTL (m^2) @ t=23, gamma=0.1625, alpha=0.015
2.011557312150414
% TCN (m^2) @ t=23, gamma=0.1625, alpha=0.015
0.002951909202237356
% TCTL (m^2) @ t=24, gamma=0.1625, alpha=0.015
2.1333984751787227
% TCN (m^2) @ t=24, gamma=0.1625, alpha=0.015
0.0031656541761287604
% TCTL (m^2) @ t=25, gamma=0.1625, alpha=0.015
2.2638334881692628
% TCN (m^2) @ t=25, gamma=0.1625, alpha=0.015
0.0033865233607850106
% TCTL (m^2) @ t=26, gamma=0.1625, alpha=0.015
2.4032870143848006
% TCN (m^2) @ t=26, gamma=0.1625, alpha=0.015
0.0036132060200417485
% TCTL (m^2) @ t=27, gamma=0.1625, alpha=0.015
2.552329373921302
% TCN (m^2) @ t=27, gamma=0.1625, alpha=0.015
0.003844121327367411
% TCTL (m^2) @ t=28, gamma=0.1625, alpha=0.015
2.711507333197283
% TCN (m^2) @ t=28, gamma=0.1625, alpha=0.015
0.004077393855529613
% TCTL (m^2) @ t=29, gamma=0.1625, alpha=0.015
2.8812345844248157
% TCN (m^2) @ t=29, gamma=0.1625, alpha=0.015
0.004310634648588508
% TCTL (m^2) @ t=30, gamma=0.1625, alpha=0.015
3.0620788568372506
% TCN (m^2) @ t=30, gamma=0.1625, alpha=0.015
0.004541475428944674
% TCTL (m^2) @ t=31, gamma=0.1625, alpha=0.015
3.254751677239124
% TCN (m^2) @ t=31, gamma=0.1625, alpha=0.015
0.004767231093674723
% TCTL (m^2) @ t=32, gamma=0.1625, alpha=0.015
3.4599962339052457
% TCN (m^2) @ t=32, gamma=0.1625, alpha=0.015
0.004984955337951489
% TCTL (m^2) @ t=33, gamma=0.1625, alpha=0.015
3.6785214898701435
% TCN (m^2) @ t=33, gamma=0.1625, alpha=0.015
0.005191372865908766
% TCTL (m^2) @ t=34, gamma=0.1625, alpha=0.015
3.9113536009122116
% TCN (m^2) @ t=34, gamma=0.1625, alpha=0.015
0.005382429586566047
% TCTL (m^2) @ t=35, gamma=0.1625, alpha=0.015
4.1591813021118025
% TCN (m^2) @ t=35, gamma=0.1625, alpha=0.015
0.005555142076249033
% TCTL (m^2) @ t=36, gamma=0.1625, alpha=0.015
4.422958514182215
% TCN (m^2) @ t=36, gamma=0.1625, alpha=0.015
0.005706234823944802
% TCTL (m^2) @ t=37, gamma=0.1625, alpha=0.015
4.703768097944853
% TCN (m^2) @ t=37, gamma=0.1625, alpha=0.015
0.005832466454863561
% TCTL (m^2) @ t=38, gamma=0.1625, alpha=0.015
5.00241947280723
% TCN (m^2) @ t=38, gamma=0.1625, alpha=0.015
0.005930523202023155
% TCTL (m^2) @ t=39, gamma=0.1625, alpha=0.015
5.320299910379632
% TCN (m^2) @ t=39, gamma=0.1625, alpha=0.015
0.005997682848857022
% TCTL (m^2) @ t=40, gamma=0.1625, alpha=0.015
5.6584212651902845
% TCN (m^2) @ t=40, gamma=0.1625, alpha=0.015
0.0060307809326043006
% TCTL (m^2) @ t=41, gamma=0.1625, alpha=0.015
6.017930236623519
% TCN (m^2) @ t=41, gamma=0.1625, alpha=0.015
0.006027527216096935
% TCTL (m^2) @ t=42, gamma=0.1625, alpha=0.015
6.400474811129298
% TCN (m^2) @ t=42, gamma=0.1625, alpha=0.015
0.005988834083717039
% TCTL (m^2) @ t=43, gamma=0.1625, alpha=0.015
6.807112633531096
% TCN (m^2) @ t=43, gamma=0.1625, alpha=0.015
0.005911560229785785
% TCTL (m^2) @ t=44, gamma=0.1625, alpha=0.015
7.239392518994146
% TCN (m^2) @ t=44, gamma=0.1625, alpha=0.015
0.005796590831575856
% TCTL (m^2) @ t=45, gamma=0.1625, alpha=0.015
7.698822033359442
% TCN (m^2) @ t=45, gamma=0.1625, alpha=0.015
0.005644438992942336
% TCTL (m^2) @ t=46, gamma=0.1625, alpha=0.015
8.18684901799168
% TCN (m^2) @ t=46, gamma=0.1625, alpha=0.015
0.005454051779936908
% TCTL (m^2) @ t=47, gamma=0.1625, alpha=0.015
8.708182927986318
% TCN (m^2) @ t=47, gamma=0.1625, alpha=0.015
0.005234274748880909
% TCTL (m^2) @ t=48, gamma=0.1625, alpha=0.015
9.26053738805233
% TCN (m^2) @ t=48, gamma=0.1625, alpha=0.015
0.004981120735131154
% TCTL (m^2) @ t=49, gamma=0.1625, alpha=0.015
9.845876855874902
% TCN (m^2) @ t=49, gamma=0.1625, alpha=0.015
0.004701084530420626
% TCTL (m^2) @ t=50, gamma=0.1625, alpha=0.015
10.466877024708388
% TCN (m^2) @ t=50, gamma=0.1625, alpha=0.015
0.004403012377944002
% TCTL (m^2) @ t=51, gamma=0.1625, alpha=0.015
11.121843526520998
% TCN (m^2) @ t=51, gamma=0.1625, alpha=0.015
0.004081302442869764
% TCTL (m^2) @ t=52, gamma=0.1625, alpha=0.015
11.813960922216278
% TCN (m^2) @ t=52, gamma=0.1625, alpha=0.015
0.0037551481628710403
% TCTL (m^2) @ t=53, gamma=0.1625, alpha=0.015
12.542743082748782
% TCN (m^2) @ t=53, gamma=0.1625, alpha=0.015
0.0034216196245878514
% TCTL (m^2) @ t=54, gamma=0.1625, alpha=0.015
13.306744151903489
% TCN (m^2) @ t=54, gamma=0.1625, alpha=0.015
0.0030818609217155525
% TCTL (m^2) @ t=55, gamma=0.1625, alpha=0.015
14.101567988959342
% TCN (m^2) @ t=55, gamma=0.1625, alpha=0.015
0.002753543066929586
% TCTL (m^2) @ t=56, gamma=0.1625, alpha=0.015
14.929452127615875
% TCN (m^2) @ t=56, gamma=0.1625, alpha=0.015
0.0024276719244925972
% TCTL (m^2) @ t=57, gamma=0.1625, alpha=0.015
15.779147441214421
% TCN (m^2) @ t=57, gamma=0.1625, alpha=0.015
0.0021120645817387105
% TCTL (m^2) @ t=58, gamma=0.1625, alpha=0.015
16.638931635037146
% TCN (m^2) @ t=58, gamma=0.1625, alpha=0.015
0.0018148669333979534
% TCTL (m^2) @ t=59, gamma=0.1625, alpha=0.015
17.506825832923816
% TCN (m^2) @ t=59, gamma=0.1625, alpha=0.015
0.0015373290585833348
% TCTL (m^2) @ t=60, gamma=0.1625, alpha=0.015
18.304633026471734
% TCN (m^2) @ t=60, gamma=0.1625, alpha=0.015
0.0012823068671194637
% TCTL (m^2) @ t=61, gamma=0.1625, alpha=0.015
19.028998633578155
% TCN (m^2) @ t=61, gamma=0.1625, alpha=0.015
0.001053921629971567
% TCTL (m^2) @ t=62, gamma=0.1625, alpha=0.015
19.62469588528728
% TCN (m^2) @ t=62, gamma=0.1625, alpha=0.015
8.530854481568923E-4
% TCTL (m^2) @ t=63, gamma=0.1625, alpha=0.015
19.990303190391145
% TCN (m^2) @ t=63, gamma=0.1625, alpha=0.015
6.763362452791213E-4
% TCTL (m^2) @ t=64, gamma=0.1625, alpha=0.015
20.098721255133896
% TCN (m^2) @ t=64, gamma=0.1625, alpha=0.015
5.272495067073057E-4
% TCTL (m^2) @ t=65, gamma=0.1625, alpha=0.015
19.873167547337736
% TCN (m^2) @ t=65, gamma=0.1625, alpha=0.015
4.0352200020947064E-4
% TCTL (m^2) @ t=66, gamma=0.1625, alpha=0.015
19.25089006702575
% TCN (m^2) @ t=66, gamma=0.1625, alpha=0.015
3.048498028882533E-4
% TCTL (m^2) @ t=67, gamma=0.1625, alpha=0.015
18.25785911486501
% TCN (m^2) @ t=67, gamma=0.1625, alpha=0.015
2.2934515885357945E-4
% TCTL (m^2) @ t=68, gamma=0.1625, alpha=0.015
17.02261856635233
% TCN (m^2) @ t=68, gamma=0.1625, alpha=0.015
1.71588022688237E-4
% TCTL (m^2) @ t=69, gamma=0.1625, alpha=0.015
15.639570064913395
% TCN (m^2) @ t=69, gamma=0.1625, alpha=0.015
1.2866816979820745E-4
% TCTL (m^2) @ t=70, gamma=0.1625, alpha=0.015
14.252690181969708
% TCN (m^2) @ t=70, gamma=0.1625, alpha=0.015
9.627273176009702E-5
% TCTL (m^2) @ t=71, gamma=0.1625, alpha=0.015
12.919710724022698
% TCN (m^2) @ t=71, gamma=0.1625, alpha=0.015
7.29134123300432E-5
% TCTL (m^2) @ t=72, gamma=0.1625, alpha=0.015
11.70630998029745
% TCN (m^2) @ t=72, gamma=0.1625, alpha=0.015
5.5687206570821386E-5
% TCTL (m^2) @ t=73, gamma=0.1625, alpha=0.015
10.589386024485018
% TCN (m^2) @ t=73, gamma=0.1625, alpha=0.015
4.238341718769908E-5
% TCTL (m^2) @ t=74, gamma=0.1625, alpha=0.015
9.58383836045401
% TCN (m^2) @ t=74, gamma=0.1625, alpha=0.015
3.2031931665600644E-5
% TCTL (m^2) @ t=75, gamma=0.1625, alpha=0.015
8.674243442015088
% TCN (m^2) @ t=75, gamma=0.1625, alpha=0.015
2.4304051829016153E-5
% TCTL (m^2) @ t=76, gamma=0.1625, alpha=0.015
7.850395950111674
% TCN (m^2) @ t=76, gamma=0.1625, alpha=0.015
1.86987590681081E-5
% TCTL (m^2) @ t=77, gamma=0.1625, alpha=0.015
7.105512106438477
% TCN (m^2) @ t=77, gamma=0.1625, alpha=0.015
1.4641512890661253E-5
% TCTL (m^2) @ t=78, gamma=0.1625, alpha=0.015
6.430975855957755
% TCN (m^2) @ t=78, gamma=0.1625, alpha=0.015
1.175536942788334E-5
% TCTL (m^2) @ t=79, gamma=0.1625, alpha=0.015
5.820590478444236
% TCN (m^2) @ t=79, gamma=0.1625, alpha=0.015
9.726098502831632E-6
% TCTL (m^2) @ t=80, gamma=0.1625, alpha=0.015
5.267787598370672
% TCN (m^2) @ t=80, gamma=0.1625, alpha=0.015
8.261498825767497E-6
% TCTL (m^2) @ t=81, gamma=0.1625, alpha=0.015
4.7672853488959905
% TCN (m^2) @ t=81, gamma=0.1625, alpha=0.015
7.168200878332995E-6
% TCTL (m^2) @ t=82, gamma=0.1625, alpha=0.015
4.3144117654700365
% TCN (m^2) @ t=82, gamma=0.1625, alpha=0.015
6.354942605048803E-6
% TCTL (m^2) @ t=83, gamma=0.1625, alpha=0.015
3.9026824741833526
% TCN (m^2) @ t=83, gamma=0.1625, alpha=0.015
5.708491189788064E-6
% TCTL (m^2) @ t=84, gamma=0.1625, alpha=0.015
3.529868630345457
% TCN (m^2) @ t=84, gamma=0.1625, alpha=0.015
5.254232317273259E-6
% TCTL (m^2) @ t=85, gamma=0.1625, alpha=0.015
3.191779294931249
% TCN (m^2) @ t=85, gamma=0.1625, alpha=0.015
4.937750663646574E-6
% TCTL (m^2) @ t=86, gamma=0.1625, alpha=0.015
2.8862695083689385
% TCN (m^2) @ t=86, gamma=0.1625, alpha=0.015
4.748228080634802E-6
% TCTL (m^2) @ t=87, gamma=0.1625, alpha=0.015
2.6103518938027617
% TCN (m^2) @ t=87, gamma=0.1625, alpha=0.015
4.6679319567694245E-6
% TCTL (m^2) @ t=88, gamma=0.1625, alpha=0.015
2.360924043247174
% TCN (m^2) @ t=88, gamma=0.1625, alpha=0.015
4.681462304669989E-6
% TCTL (m^2) @ t=89, gamma=0.1625, alpha=0.015
2.1347920557448803
% TCN (m^2) @ t=89, gamma=0.1625, alpha=0.015
4.7808882667666544E-6
% TCTL (m^2) @ t=90, gamma=0.1625, alpha=0.015
1.9311739080028136
% TCN (m^2) @ t=90, gamma=0.1625, alpha=0.015
4.966675071395993E-6
% TCTL (m^2) @ t=91, gamma=0.1625, alpha=0.015
1.7472441765430142
% TCN (m^2) @ t=91, gamma=0.1625, alpha=0.015
5.237124153971703E-6
% TCTL (m^2) @ t=92, gamma=0.1625, alpha=0.015
1.5810242804097854
% TCN (m^2) @ t=92, gamma=0.1625, alpha=0.015
5.597938756415941E-6
% TCTL (m^2) @ t=93, gamma=0.1625, alpha=0.015
1.4307717609728068
% TCN (m^2) @ t=93, gamma=0.1625, alpha=0.015
6.058320504322652E-6
% TCTL (m^2) @ t=94, gamma=0.1625, alpha=0.015
1.2948316876451964
% TCN (m^2) @ t=94, gamma=0.1625, alpha=0.015
6.6306303617710965E-6
% TCTL (m^2) @ t=95, gamma=0.1625, alpha=0.015
1.1718295090201183
% TCN (m^2) @ t=95, gamma=0.1625, alpha=0.015
7.333670051557959E-6
% TCTL (m^2) @ t=96, gamma=0.1625, alpha=0.015
1.0607466410078814
% TCN (m^2) @ t=96, gamma=0.1625, alpha=0.015
8.201576756988426E-6
% TCTL (m^2) @ t=97, gamma=0.1625, alpha=0.015
0.960352951304009
% TCN (m^2) @ t=97, gamma=0.1625, alpha=0.015
9.26026109681071E-6
% TCTL (m^2) @ t=98, gamma=0.1625, alpha=0.015
0.8695666943559772
% TCN (m^2) @ t=98, gamma=0.1625, alpha=0.015
1.0542782109488801E-5
% TCTL (m^2) @ t=99, gamma=0.1625, alpha=0.015
0.7874268051242809
% TCN (m^2) @ t=99, gamma=0.1625, alpha=0.015
1.2088845374769458E-5
% TCTL (m^2) @ t=100, gamma=0.1625, alpha=0.015
0.7128483950344391
% TCN (m^2) @ t=100, gamma=0.1625, alpha=0.015
1.3932777311379181E-5
% TCTL (m^2) @ t=101, gamma=0.1625, alpha=0.015
0.6456152269773654
% TCN (m^2) @ t=101, gamma=0.1625, alpha=0.015
1.617404717192347E-5
% TCTL (m^2) @ t=102, gamma=0.1625, alpha=0.015
0.5846724961949278
% TCN (m^2) @ t=102, gamma=0.1625, alpha=0.015
1.8847881488728877E-5
% TCTL (m^2) @ t=103, gamma=0.1625, alpha=0.015
0.5295905312478413
% TCN (m^2) @ t=103, gamma=0.1625, alpha=0.015
2.2073557988486322E-5
% TCTL (m^2) @ t=104, gamma=0.1625, alpha=0.015
0.47975823166974535
% TCN (m^2) @ t=104, gamma=0.1625, alpha=0.015
2.5939453616018073E-5
% TCTL (m^2) @ t=105, gamma=0.1625, alpha=0.015
0.4346415609556295
% TCN (m^2) @ t=105, gamma=0.1625, alpha=0.015
3.0568071660203524E-5
% TCTL (m^2) @ t=106, gamma=0.1625, alpha=0.015
0.39393547818725405
% TCN (m^2) @ t=106, gamma=0.1625, alpha=0.015
3.614306495420464E-5
% TCTL (m^2) @ t=107, gamma=0.1625, alpha=0.015
0.35708155770974426
% TCN (m^2) @ t=107, gamma=0.1625, alpha=0.015
4.278162558304294E-5
% TCTL (m^2) @ t=108, gamma=0.1625, alpha=0.015
0.32392198783247567
% TCN (m^2) @ t=108, gamma=0.1625, alpha=0.015
5.080046561777353E-5
% TCTL (m^2) @ t=109, gamma=0.1625, alpha=0.015
0.2939830680045053
% TCN (m^2) @ t=109, gamma=0.1625, alpha=0.015
6.0339313027529264E-5
% TCTL (m^2) @ t=110, gamma=0.1625, alpha=0.015
0.26704733400359665
% TCN (m^2) @ t=110, gamma=0.1625, alpha=0.015
7.173762426223246E-5
% TCTL (m^2) @ t=111, gamma=0.1625, alpha=0.015
0.24287740392427445
% TCN (m^2) @ t=111, gamma=0.1625, alpha=0.015
8.531694076384063E-5
% TCTL (m^2) @ t=112, gamma=0.1625, alpha=0.015
0.22126552320308504
% TCN (m^2) @ t=112, gamma=0.1625, alpha=0.015
1.0148101175592757E-4
% TCTL (m^2) @ t=113, gamma=0.1625, alpha=0.015
0.20208570896049374
% TCN (m^2) @ t=113, gamma=0.1625, alpha=0.015
1.2078781248110097E-4
% TCTL (m^2) @ t=114, gamma=0.1625, alpha=0.015
0.18522128014262645
% TCN (m^2) @ t=114, gamma=0.1625, alpha=0.015
1.437657230083771E-4
% TCTL (m^2) @ t=115, gamma=0.1625, alpha=0.015
0.1705470616410058
% TCN (m^2) @ t=115, gamma=0.1625, alpha=0.015
1.7110244787856243E-4
% TCTL (m^2) @ t=116, gamma=0.1625, alpha=0.015
0.15801872603852513
% TCN (m^2) @ t=116, gamma=0.1625, alpha=0.015
2.035131419395324E-4
% TCTL (m^2) @ t=117, gamma=0.1625, alpha=0.015
0.1475608561336277
% TCN (m^2) @ t=117, gamma=0.1625, alpha=0.015
2.4199488932036227E-4
% TCTL (m^2) @ t=118, gamma=0.1625, alpha=0.015
0.13914250217135068
% TCN (m^2) @ t=118, gamma=0.1625, alpha=0.015
2.875783454428659E-4
% TCTL (m^2) @ t=119, gamma=0.1625, alpha=0.015
0.13271830754011893
% TCN (m^2) @ t=119, gamma=0.1625, alpha=0.015
3.4147047216335125E-4
% TCTL (m^2) @ t=120, gamma=0.1625, alpha=0.015
0.12821186712599641
% TCN (m^2) @ t=120, gamma=0.1625, alpha=0.015
4.0510111990134964E-4
% TCTL (m^2) @ t=121, gamma=0.1625, alpha=0.015
0.12558700659376254
% TCN (m^2) @ t=121, gamma=0.1625, alpha=0.015
4.799988048462666E-4
% TCTL (m^2) @ t=122, gamma=0.1625, alpha=0.015
0.12469383609314784
% TCN (m^2) @ t=122, gamma=0.1625, alpha=0.015
5.68169077913897E-4
% TCTL (m^2) @ t=123, gamma=0.1625, alpha=0.015
0.12545054681377657
% TCN (m^2) @ t=123, gamma=0.1625, alpha=0.015
6.715842157413469E-4
% TCTL (m^2) @ t=124, gamma=0.1625, alpha=0.015
0.12771201526319365
% TCN (m^2) @ t=124, gamma=0.1625, alpha=0.015
7.926668255644703E-4
% TCTL (m^2) @ t=125, gamma=0.1625, alpha=0.015
0.13131876397849046
% TCN (m^2) @ t=125, gamma=0.1625, alpha=0.015
9.340509150469335E-4
% TCTL (m^2) @ t=126, gamma=0.1625, alpha=0.015
0.13613173348522437
% TCN (m^2) @ t=126, gamma=0.1625, alpha=0.015
0.0010987840600534134
% TCTL (m^2) @ t=127, gamma=0.1625, alpha=0.015
0.14205039418104165
% TCN (m^2) @ t=127, gamma=0.1625, alpha=0.015
0.001290419598322936
% TCTL (m^2) @ t=128, gamma=0.1625, alpha=0.015
0.14894694074054024
% TCN (m^2) @ t=128, gamma=0.1625, alpha=0.015
0.0015128018620106667
% TCTL (m^2) @ t=129, gamma=0.1625, alpha=0.015
0.1567528923095919
% TCN (m^2) @ t=129, gamma=0.1625, alpha=0.015
0.001770030569893562
% TCTL (m^2) @ t=130, gamma=0.1625, alpha=0.015
0.16542027952354837
% TCN (m^2) @ t=130, gamma=0.1625, alpha=0.015
0.0020667879324176345
% TCTL (m^2) @ t=131, gamma=0.1625, alpha=0.015
0.17492601192040624
% TCN (m^2) @ t=131, gamma=0.1625, alpha=0.015
0.002408598910668695
% TCTL (m^2) @ t=132, gamma=0.1625, alpha=0.015
0.18530067601461794
% TCN (m^2) @ t=132, gamma=0.1625, alpha=0.015
0.0028014215009885767
% TCTL (m^2) @ t=133, gamma=0.1625, alpha=0.015
0.196549959415165
% TCN (m^2) @ t=133, gamma=0.1625, alpha=0.015
0.0032514824491338707
% TCTL (m^2) @ t=134, gamma=0.1625, alpha=0.015
0.20864074794202536
% TCN (m^2) @ t=134, gamma=0.1625, alpha=0.015
0.0037652151626260833
% TCTL (m^2) @ t=135, gamma=0.1625, alpha=0.015
0.22160524064990011
% TCN (m^2) @ t=135, gamma=0.1625, alpha=0.015
0.004350060754496914
% TCTL (m^2) @ t=136, gamma=0.1625, alpha=0.015
0.23550267077402312
% TCN (m^2) @ t=136, gamma=0.1625, alpha=0.015
0.005014859547261228
% TCTL (m^2) @ t=137, gamma=0.1625, alpha=0.015
0.25037095548028
% TCN (m^2) @ t=137, gamma=0.1625, alpha=0.015
0.005768234229940508
% TCTL (m^2) @ t=138, gamma=0.1625, alpha=0.015
0.26625287902032235
% TCN (m^2) @ t=138, gamma=0.1625, alpha=0.015
0.006619528286986859
% TCTL (m^2) @ t=139, gamma=0.1625, alpha=0.015
0.28320950272695217
% TCN (m^2) @ t=139, gamma=0.1625, alpha=0.015
0.007578814300425132
% TCTL (m^2) @ t=140, gamma=0.1625, alpha=0.015
0.3012984520994774
% TCN (m^2) @ t=140, gamma=0.1625, alpha=0.015
0.008656616824378929
% TCTL (m^2) @ t=141, gamma=0.1625, alpha=0.015
0.32057936462466596
% TCN (m^2) @ t=141, gamma=0.1625, alpha=0.015
0.009863985701928923
% TCTL (m^2) @ t=142, gamma=0.1625, alpha=0.015
0.3411236710468234
% TCN (m^2) @ t=142, gamma=0.1625, alpha=0.015
0.011212431966118045
% TCTL (m^2) @ t=143, gamma=0.1625, alpha=0.015
0.3630023390533865
% TCN (m^2) @ t=143, gamma=0.1625, alpha=0.015
0.012713180493240907
% TCTL (m^2) @ t=144, gamma=0.1625, alpha=0.015
0.38629354363432544
% TCN (m^2) @ t=144, gamma=0.1625, alpha=0.015
0.014378527997034436
% TCTL (m^2) @ t=145, gamma=0.1625, alpha=0.015
0.4110793459842198
% TCN (m^2) @ t=145, gamma=0.1625, alpha=0.015
0.01622097482927646
% TCTL (m^2) @ t=146, gamma=0.1625, alpha=0.015
0.4374464490722474
% TCN (m^2) @ t=146, gamma=0.1625, alpha=0.015
0.018253422500432777
% TCTL (m^2) @ t=147, gamma=0.1625, alpha=0.015
0.46558735015278363
% TCN (m^2) @ t=147, gamma=0.1625, alpha=0.015
0.020488262758431783
% TCTL (m^2) @ t=148, gamma=0.1625, alpha=0.015
0.4956147712569341
% TCN (m^2) @ t=148, gamma=0.1625, alpha=0.015
0.022937363415176854
% TCTL (m^2) @ t=149, gamma=0.1625, alpha=0.015
0.5275969040547108
% TCN (m^2) @ t=149, gamma=0.1625, alpha=0.015
0.025613217670104868
% TCTL (m^2) @ t=150, gamma=0.1625, alpha=0.015
0.5616384391039054
% TCN (m^2) @ t=150, gamma=0.1625, alpha=0.015
0.028528163056960827
% TCTL (m^2) @ t=151, gamma=0.1625, alpha=0.015
0.5978484698766926
% TCN (m^2) @ t=151, gamma=0.1625, alpha=0.015
0.031694013498230915
% TCTL (m^2) @ t=152, gamma=0.1625, alpha=0.015
0.636531855133424
% TCN (m^2) @ t=152, gamma=0.1625, alpha=0.015
0.03509930176665893
% TCTL (m^2) @ t=153, gamma=0.1625, alpha=0.015
0.6777093596568087
% TCN (m^2) @ t=153, gamma=0.1625, alpha=0.015
0.03876634616712207
% TCTL (m^2) @ t=154, gamma=0.1625, alpha=0.015
0.7215069406801276
% TCN (m^2) @ t=154, gamma=0.1625, alpha=0.015
0.042704955119746174
% TCTL (m^2) @ t=155, gamma=0.1625, alpha=0.015
0.768050555436654
% TCN (m^2) @ t=155, gamma=0.1625, alpha=0.015
0.046924937044657375
% TCTL (m^2) @ t=156, gamma=0.1625, alpha=0.015
0.8175977680432025
% TCN (m^2) @ t=156, gamma=0.1625, alpha=0.015
0.05141549548571822
% TCTL (m^2) @ t=157, gamma=0.1625, alpha=0.015
0.8705070661509717
% TCN (m^2) @ t=157, gamma=0.1625, alpha=0.015
0.056150033012843104
% TCTL (m^2) @ t=158, gamma=0.1625, alpha=0.015
0.9267950781897984
% TCN (m^2) @ t=158, gamma=0.1625, alpha=0.015
0.06115547498112742
% TCTL (m^2) @ t=159, gamma=0.1625, alpha=0.015
0.9866300284955272
% TCN (m^2) @ t=159, gamma=0.1625, alpha=0.015
0.06643501231171006
% TCTL (m^2) @ t=160, gamma=0.1625, alpha=0.015
1.0501801414040035
% TCN (m^2) @ t=160, gamma=0.1625, alpha=0.015
0.07199183592573058
% TCTL (m^2) @ t=161, gamma=0.1625, alpha=0.015
1.1179958713468299
% TCN (m^2) @ t=161, gamma=0.1625, alpha=0.015
0.07774856283916161
% TCTL (m^2) @ t=162, gamma=0.1625, alpha=0.015
1.1902710332613458
% TCN (m^2) @ t=162, gamma=0.1625, alpha=0.015
0.08370298948767183
% TCTL (m^2) @ t=163, gamma=0.1625, alpha=0.015
1.267132642580677
% TCN (m^2) @ t=163, gamma=0.1625, alpha=0.015
0.08986699360763922
% TCTL (m^2) @ t=164, gamma=0.1625, alpha=0.015
1.3488063495446263
% TCN (m^2) @ t=164, gamma=0.1625, alpha=0.015
0.09623166076954662
% TCTL (m^2) @ t=165, gamma=0.1625, alpha=0.015
1.4355717125833962
% TCN (m^2) @ t=165, gamma=0.1625, alpha=0.015
0.10277605845184529
% TCTL (m^2) @ t=166, gamma=0.1625, alpha=0.015
1.528323771487841
% TCN (m^2) @ t=166, gamma=0.1625, alpha=0.015
0.10934204100109599
% TCTL (m^2) @ t=167, gamma=0.1625, alpha=0.015
1.627003362503902
% TCN (m^2) @ t=167, gamma=0.1625, alpha=0.015
0.1159841893632777
% TCTL (m^2) @ t=168, gamma=0.1625, alpha=0.015
1.7319125315869202
% TCN (m^2) @ t=168, gamma=0.1625, alpha=0.015
0.12267655773138483
% TCTL (m^2) @ t=169, gamma=0.1625, alpha=0.015
1.8433533246922345
% TCN (m^2) @ t=169, gamma=0.1625, alpha=0.015
0.12939320029841356
% TCTL (m^2) @ t=170, gamma=0.1625, alpha=0.015
1.9618816581353151
% TCN (m^2) @ t=170, gamma=0.1625, alpha=0.015
0.13606608586904115
% TCTL (m^2) @ t=171, gamma=0.1625, alpha=0.015
2.088190715664826
% TCN (m^2) @ t=171, gamma=0.1625, alpha=0.015
0.1426044277233341
% TCTL (m^2) @ t=172, gamma=0.1625, alpha=0.015
2.222524874918112
% TCN (m^2) @ t=172, gamma=0.1625, alpha=0.015
0.14899184002637134
% TCTL (m^2) @ t=173, gamma=0.1625, alpha=0.015
2.365355048903514
% TCN (m^2) @ t=173, gamma=0.1625, alpha=0.015
0.1551743830159077
% TCTL (m^2) @ t=174, gamma=0.1625, alpha=0.015
2.5171710874013433
% TCN (m^2) @ t=174, gamma=0.1625, alpha=0.015
0.16109497768412598
% TCTL (m^2) @ t=175, gamma=0.1625, alpha=0.015
2.6788057860760426
% TCN (m^2) @ t=175, gamma=0.1625, alpha=0.015
0.16666644674827977
% TCTL (m^2) @ t=176, gamma=0.1625, alpha=0.015
2.8508230083663264
% TCN (m^2) @ t=176, gamma=0.1625, alpha=0.015
0.1718224256877965
% TCTL (m^2) @ t=177, gamma=0.1625, alpha=0.015
3.0338144104762974
% TCN (m^2) @ t=177, gamma=0.1625, alpha=0.015
0.1764926738776773
% TCTL (m^2) @ t=178, gamma=0.1625, alpha=0.015
3.228455853186902
% TCN (m^2) @ t=178, gamma=0.1625, alpha=0.015
0.1805983808696261
% TCTL (m^2) @ t=179, gamma=0.1625, alpha=0.015
3.4354951680744525
% TCN (m^2) @ t=179, gamma=0.1625, alpha=0.015
0.1840671654301837
% TCTL (m^2) @ t=180, gamma=0.1625, alpha=0.015
3.655968977657744
% TCN (m^2) @ t=180, gamma=0.1625, alpha=0.015
0.18688871428143788
% TCTL (m^2) @ t=181, gamma=0.1625, alpha=0.015
3.8905781459196938
% TCN (m^2) @ t=181, gamma=0.1625, alpha=0.015
0.18895451495360577
% TCTL (m^2) @ t=182, gamma=0.1625, alpha=0.015
4.140204063724111
% TCN (m^2) @ t=182, gamma=0.1625, alpha=0.015
0.19019034103059085
% TCTL (m^2) @ t=183, gamma=0.1625, alpha=0.015
4.4057684783964595
% TCN (m^2) @ t=183, gamma=0.1625, alpha=0.015
0.19052028268073587
% TCTL (m^2) @ t=184, gamma=0.1625, alpha=0.015
4.688431060201916
% TCN (m^2) @ t=184, gamma=0.1625, alpha=0.015
0.18999671367744048
% TCTL (m^2) @ t=185, gamma=0.1625, alpha=0.015
4.989416498238656
% TCN (m^2) @ t=185, gamma=0.1625, alpha=0.015
0.18868654825903838
% TCTL (m^2) @ t=186, gamma=0.1625, alpha=0.015
5.309743445835656
% TCN (m^2) @ t=186, gamma=0.1625, alpha=0.015
0.18649293072205264
% TCTL (m^2) @ t=187, gamma=0.1625, alpha=0.015
5.650607630950706
% TCN (m^2) @ t=187, gamma=0.1625, alpha=0.015
0.1834072605494992
% TCTL (m^2) @ t=188, gamma=0.1625, alpha=0.015
6.013257666256091
% TCN (m^2) @ t=188, gamma=0.1625, alpha=0.015
0.1794274953876795
% TCTL (m^2) @ t=189, gamma=0.1625, alpha=0.015
6.399658960187765
% TCN (m^2) @ t=189, gamma=0.1625, alpha=0.015
0.17435819224890906
% TCTL (m^2) @ t=190, gamma=0.1625, alpha=0.015
6.810722119181902
% TCN (m^2) @ t=190, gamma=0.1625, alpha=0.015
0.16821642606374
% TCTL (m^2) @ t=191, gamma=0.1625, alpha=0.015
7.247607609048045
% TCN (m^2) @ t=191, gamma=0.1625, alpha=0.015
0.16098494307125918
% TCTL (m^2) @ t=192, gamma=0.1625, alpha=0.015
7.713102364986581
% TCN (m^2) @ t=192, gamma=0.1625, alpha=0.015
0.1530412695059992
% TCTL (m^2) @ t=193, gamma=0.1625, alpha=0.015
8.20902586448615
% TCN (m^2) @ t=193, gamma=0.1625, alpha=0.015
0.1445029328569477
% TCTL (m^2) @ t=194, gamma=0.1625, alpha=0.015
8.736610810451843
% TCN (m^2) @ t=194, gamma=0.1625, alpha=0.015
0.13532976828833432
% TCTL (m^2) @ t=195, gamma=0.1625, alpha=0.015
9.301200130763666
% TCN (m^2) @ t=195, gamma=0.1625, alpha=0.015
0.12586531954713148
% TCTL (m^2) @ t=196, gamma=0.1625, alpha=0.015
9.904470091212435
% TCN (m^2) @ t=196, gamma=0.1625, alpha=0.015
0.1162459328324495
% TCTL (m^2) @ t=197, gamma=0.1625, alpha=0.015
10.543931885238463
% TCN (m^2) @ t=197, gamma=0.1625, alpha=0.015
0.10629747176438978
% TCTL (m^2) @ t=198, gamma=0.1625, alpha=0.015
11.229625134161934
% TCN (m^2) @ t=198, gamma=0.1625, alpha=0.015
0.09651907215172638
% TCTL (m^2) @ t=199, gamma=0.1625, alpha=0.015
11.962087711332861
% TCN (m^2) @ t=199, gamma=0.1625, alpha=0.015
0.08693747522712764
% TCTL (m^2) @ t=200, gamma=0.1625, alpha=0.015
12.738552843863646
% TCN (m^2) @ t=200, gamma=0.1625, alpha=0.015
0.07741512645751486
% TCTL (m^2) @ t=0, gamma=0.1625, alpha=0.0175
0.8999941701741181
% TCN (m^2) @ t=0, gamma=0.1625, alpha=0.0175
4.63847103384762E-4
% TCTL (m^2) @ t=1, gamma=0.1625, alpha=0.0175
0.8905704337465974
% TCN (m^2) @ t=1, gamma=0.1625, alpha=0.0175
5.21331404781288E-4
% TCTL (m^2) @ t=2, gamma=0.1625, alpha=0.0175
0.8895811432575388
% TCN (m^2) @ t=2, gamma=0.1625, alpha=0.0175
5.852247330138652E-4
% TCTL (m^2) @ t=3, gamma=0.1625, alpha=0.0175
0.8952974892042294
% TCN (m^2) @ t=3, gamma=0.1625, alpha=0.0175
6.550582074923324E-4
% TCTL (m^2) @ t=4, gamma=0.1625, alpha=0.0175
0.9081035228236598
% TCN (m^2) @ t=4, gamma=0.1625, alpha=0.0175
7.324040347305494E-4
% TCTL (m^2) @ t=5, gamma=0.1625, alpha=0.0175
0.9276626297756825
% TCN (m^2) @ t=5, gamma=0.1625, alpha=0.0175
8.178092058809928E-4
% TCTL (m^2) @ t=6, gamma=0.1625, alpha=0.0175
0.9537152108907301
% TCN (m^2) @ t=6, gamma=0.1625, alpha=0.0175
9.118799743825263E-4
% TCTL (m^2) @ t=7, gamma=0.1625, alpha=0.0175
0.9860055500022122
% TCN (m^2) @ t=7, gamma=0.1625, alpha=0.0175
0.0010155196855309058
% TCTL (m^2) @ t=8, gamma=0.1625, alpha=0.0175
1.024306454880468
% TCN (m^2) @ t=8, gamma=0.1625, alpha=0.0175
0.0011298306610130723
% TCTL (m^2) @ t=9, gamma=0.1625, alpha=0.0175
1.068544409571134
% TCN (m^2) @ t=9, gamma=0.1625, alpha=0.0175
0.0012556899588120217
% TCTL (m^2) @ t=10, gamma=0.1625, alpha=0.0175
1.1185855777215346
% TCN (m^2) @ t=10, gamma=0.1625, alpha=0.0175
0.0013942658171247195
% TCTL (m^2) @ t=11, gamma=0.1625, alpha=0.0175
1.1743571174784797
% TCN (m^2) @ t=11, gamma=0.1625, alpha=0.0175
0.0015465677874699573
% TCTL (m^2) @ t=12, gamma=0.1625, alpha=0.0175
1.235929569129766
% TCN (m^2) @ t=12, gamma=0.1625, alpha=0.0175
0.0017138808717337482
% TCTL (m^2) @ t=13, gamma=0.1625, alpha=0.0175
1.3032048456195429
% TCN (m^2) @ t=13, gamma=0.1625, alpha=0.0175
0.0018972546496822743
% TCTL (m^2) @ t=14, gamma=0.1625, alpha=0.0175
1.3763787954974378
% TCN (m^2) @ t=14, gamma=0.1625, alpha=0.0175
0.0020980927484835253
% TCTL (m^2) @ t=15, gamma=0.1625, alpha=0.0175
1.4556168219683578
% TCN (m^2) @ t=15, gamma=0.1625, alpha=0.0175
0.002317763373709974
% TCTL (m^2) @ t=16, gamma=0.1625, alpha=0.0175
1.5409266961568746
% TCN (m^2) @ t=16, gamma=0.1625, alpha=0.0175
0.0025574243113622728
% TCTL (m^2) @ t=17, gamma=0.1625, alpha=0.0175
1.6328067452037305
% TCN (m^2) @ t=17, gamma=0.1625, alpha=0.0175
0.0028178561192318636
% TCTL (m^2) @ t=18, gamma=0.1625, alpha=0.0175
1.7313129115932278
% TCN (m^2) @ t=18, gamma=0.1625, alpha=0.0175
0.00310033200936673
% TCTL (m^2) @ t=19, gamma=0.1625, alpha=0.0175
1.8367512741751604
% TCN (m^2) @ t=19, gamma=0.1625, alpha=0.0175
0.003405223647770874
% TCTL (m^2) @ t=20, gamma=0.1625, alpha=0.0175
1.9495657622409819
% TCN (m^2) @ t=20, gamma=0.1625, alpha=0.0175
0.003732029510206035
% TCTL (m^2) @ t=21, gamma=0.1625, alpha=0.0175
2.0699531819747783