% Model:              MODEL_SC_3_0.45_I.mph
% Version:            COMSOL 5.6.0.401
% Date:               May 19 2022, 11:35
% Dimension:          0
% Nodes:              12462
% Expressions:        12462
% Description:        , 
% TCTL (m^2) @ t=0, alpha=0.015, gamma=0.135
0.8999682515547603
% TCN (m^2) @ t=0, alpha=0.015, gamma=0.135
1.3915458339300491E-4
% TCTL (m^2) @ t=1, alpha=0.015, gamma=0.135
0.8265617724785358
% TCN (m^2) @ t=1, alpha=0.015, gamma=0.135
1.5065031800998665E-4
% TCTL (m^2) @ t=2, alpha=0.015, gamma=0.135
0.7618017486333747
% TCN (m^2) @ t=2, alpha=0.015, gamma=0.135
1.652357270686252E-4
% TCTL (m^2) @ t=3, alpha=0.015, gamma=0.135
0.7037298603706066
% TCN (m^2) @ t=3, alpha=0.015, gamma=0.135
1.8269895468131666E-4
% TCTL (m^2) @ t=4, alpha=0.015, gamma=0.135
0.6513256907722732
% TCN (m^2) @ t=4, alpha=0.015, gamma=0.135
2.0317176724253408E-4
% TCTL (m^2) @ t=5, alpha=0.015, gamma=0.135
0.6043974979152424
% TCN (m^2) @ t=5, alpha=0.015, gamma=0.135
2.26902212988247E-4
% TCTL (m^2) @ t=6, alpha=0.015, gamma=0.135
0.5634055127045096
% TCN (m^2) @ t=6, alpha=0.015, gamma=0.135
2.545677757948855E-4
% TCTL (m^2) @ t=7, alpha=0.015, gamma=0.135
0.5279901762226299
% TCN (m^2) @ t=7, alpha=0.015, gamma=0.135
2.881905037096119E-4
% TCTL (m^2) @ t=8, alpha=0.015, gamma=0.135
0.49814872191255366
% TCN (m^2) @ t=8, alpha=0.015, gamma=0.135
3.2780484581768294E-4
% TCTL (m^2) @ t=9, alpha=0.015, gamma=0.135
0.4738951154577703
% TCN (m^2) @ t=9, alpha=0.015, gamma=0.135
3.732369018483103E-4
% TCTL (m^2) @ t=10, alpha=0.015, gamma=0.135
0.4542394722054127
% TCN (m^2) @ t=10, alpha=0.015, gamma=0.135
4.2710472594446734E-4
% TCTL (m^2) @ t=11, alpha=0.015, gamma=0.135
0.4393985896968069
% TCN (m^2) @ t=11, alpha=0.015, gamma=0.135
4.888349303890928E-4
% TCTL (m^2) @ t=12, alpha=0.015, gamma=0.135
0.42952794375726966
% TCN (m^2) @ t=12, alpha=0.015, gamma=0.135
5.580163115864796E-4
% TCTL (m^2) @ t=13, alpha=0.015, gamma=0.135
0.42326342939768574
% TCN (m^2) @ t=13, alpha=0.015, gamma=0.135
6.388159904771808E-4
% TCTL (m^2) @ t=14, alpha=0.015, gamma=0.135
0.4207338414595094
% TCN (m^2) @ t=14, alpha=0.015, gamma=0.135
7.308405195735362E-4
% TCTL (m^2) @ t=15, alpha=0.015, gamma=0.135
0.4222448994156801
% TCN (m^2) @ t=15, alpha=0.015, gamma=0.135
8.331559751469683E-4
% TCTL (m^2) @ t=16, alpha=0.015, gamma=0.135
0.42634694030390446
% TCN (m^2) @ t=16, alpha=0.015, gamma=0.135
9.503734155860298E-4
% TCTL (m^2) @ t=17, alpha=0.015, gamma=0.135
0.4329670711018097
% TCN (m^2) @ t=17, alpha=0.015, gamma=0.135
0.001082724697529848
% TCTL (m^2) @ t=18, alpha=0.015, gamma=0.135
0.44254234403364373
% TCN (m^2) @ t=18, alpha=0.015, gamma=0.135
0.0012288196541759995
% TCTL (m^2) @ t=19, alpha=0.015, gamma=0.135
0.45384304606872244
% TCN (m^2) @ t=19, alpha=0.015, gamma=0.135
0.0013916986499764939
% TCTL (m^2) @ t=20, alpha=0.015, gamma=0.135
0.46601286046470436
% TCN (m^2) @ t=20, alpha=0.015, gamma=0.135
0.0015734788577335267
% TCTL (m^2) @ t=21, alpha=0.015, gamma=0.135
0.47901080794141737
% TCN (m^2) @ t=21, alpha=0.015, gamma=0.135
0.0017742615953510279
% TCTL (m^2) @ t=22, alpha=0.015, gamma=0.135
0.49317910914636365
% TCN (m^2) @ t=22, alpha=0.015, gamma=0.135
0.001996188065288672
% TCTL (m^2) @ t=23, alpha=0.015, gamma=0.135
0.5088075133718862
% TCN (m^2) @ t=23, alpha=0.015, gamma=0.135
0.002241331762722682
% TCTL (m^2) @ t=24, alpha=0.015, gamma=0.135
0.5254352872518746
% TCN (m^2) @ t=24, alpha=0.015, gamma=0.135
0.0025107977850831334
% TCTL (m^2) @ t=25, alpha=0.015, gamma=0.135
0.5428975644470454
% TCN (m^2) @ t=25, alpha=0.015, gamma=0.135
0.002805810803949756
% TCTL (m^2) @ t=26, alpha=0.015, gamma=0.135
0.5610202828797693
% TCN (m^2) @ t=26, alpha=0.015, gamma=0.135
0.0031275253252114198
% TCTL (m^2) @ t=27, alpha=0.015, gamma=0.135
0.5796825935891325
% TCN (m^2) @ t=27, alpha=0.015, gamma=0.135
0.003477501883610718
% TCTL (m^2) @ t=28, alpha=0.015, gamma=0.135
0.5990990873964821
% TCN (m^2) @ t=28, alpha=0.015, gamma=0.135
0.0038576266882418323
% TCTL (m^2) @ t=29, alpha=0.015, gamma=0.135
0.6196918259623744
% TCN (m^2) @ t=29, alpha=0.015, gamma=0.135
0.004270072755029712
% TCTL (m^2) @ t=30, alpha=0.015, gamma=0.135
0.6412719744219249
% TCN (m^2) @ t=30, alpha=0.015, gamma=0.135
0.00471616859906693
% TCTL (m^2) @ t=31, alpha=0.015, gamma=0.135
0.6635665076794471
% TCN (m^2) @ t=31, alpha=0.015, gamma=0.135
0.005196188269301904
% TCTL (m^2) @ t=32, alpha=0.015, gamma=0.135
0.6859671173011144
% TCN (m^2) @ t=32, alpha=0.015, gamma=0.135
0.0057089698127450565
% TCTL (m^2) @ t=33, alpha=0.015, gamma=0.135
0.7085914949599235
% TCN (m^2) @ t=33, alpha=0.015, gamma=0.135
0.00625646069892155
% TCTL (m^2) @ t=34, alpha=0.015, gamma=0.135
0.7319941394939884
% TCN (m^2) @ t=34, alpha=0.015, gamma=0.135
0.006841376630469761
% TCTL (m^2) @ t=35, alpha=0.015, gamma=0.135
0.7575107390532576
% TCN (m^2) @ t=35, alpha=0.015, gamma=0.135
0.007467358071326623
% TCTL (m^2) @ t=36, alpha=0.015, gamma=0.135
0.7842892311000358
% TCN (m^2) @ t=36, alpha=0.015, gamma=0.135
0.008131771151061808
% TCTL (m^2) @ t=37, alpha=0.015, gamma=0.135
0.812110204076542
% TCN (m^2) @ t=37, alpha=0.015, gamma=0.135
0.008833883032318409
% TCTL (m^2) @ t=38, alpha=0.015, gamma=0.135
0.8404031645844393
% TCN (m^2) @ t=38, alpha=0.015, gamma=0.135
0.00957178825998563
% TCTL (m^2) @ t=39, alpha=0.015, gamma=0.135
0.8695249651098358
% TCN (m^2) @ t=39, alpha=0.015, gamma=0.135
0.010346678725845982
% TCTL (m^2) @ t=40, alpha=0.015, gamma=0.135
0.8995045373792985
% TCN (m^2) @ t=40, alpha=0.015, gamma=0.135
0.011157880361709147
% TCTL (m^2) @ t=41, alpha=0.015, gamma=0.135
0.930447646144744
% TCN (m^2) @ t=41, alpha=0.015, gamma=0.135
0.012002928998879944
% TCTL (m^2) @ t=42, alpha=0.015, gamma=0.135
0.9622915984490296
% TCN (m^2) @ t=42, alpha=0.015, gamma=0.135
0.012883285294331307
% TCTL (m^2) @ t=43, alpha=0.015, gamma=0.135
0.9948658904041826
% TCN (m^2) @ t=43, alpha=0.015, gamma=0.135
0.013796962061725511
% TCTL (m^2) @ t=44, alpha=0.015, gamma=0.135
1.0272544812250723
% TCN (m^2) @ t=44, alpha=0.015, gamma=0.135
0.01473328304168475
% TCTL (m^2) @ t=45, alpha=0.015, gamma=0.135
1.0599762206769954
% TCN (m^2) @ t=45, alpha=0.015, gamma=0.135
0.01569829531722354
% TCTL (m^2) @ t=46, alpha=0.015, gamma=0.135
1.0931352599833108
% TCN (m^2) @ t=46, alpha=0.015, gamma=0.135
0.016690771500264857
% TCTL (m^2) @ t=47, alpha=0.015, gamma=0.135
1.1276335230046395
% TCN (m^2) @ t=47, alpha=0.015, gamma=0.135
0.017700082713324225
% TCTL (m^2) @ t=48, alpha=0.015, gamma=0.135
1.1629798572603707
% TCN (m^2) @ t=48, alpha=0.015, gamma=0.135
0.018732017027624184
% TCTL (m^2) @ t=49, alpha=0.015, gamma=0.135
1.1990960193610332
% TCN (m^2) @ t=49, alpha=0.015, gamma=0.135
0.019785163823179724
% TCTL (m^2) @ t=50, alpha=0.015, gamma=0.135
1.234612604727481
% TCN (m^2) @ t=50, alpha=0.015, gamma=0.135
0.02083483463135378
% TCTL (m^2) @ t=51, alpha=0.015, gamma=0.135
1.2702499202643893
% TCN (m^2) @ t=51, alpha=0.015, gamma=0.135
0.02189401558838102
% TCTL (m^2) @ t=52, alpha=0.015, gamma=0.135
1.3060554299275593
% TCN (m^2) @ t=52, alpha=0.015, gamma=0.135
0.022962556841372578
% TCTL (m^2) @ t=53, alpha=0.015, gamma=0.135
1.3478843727929093
% TCN (m^2) @ t=53, alpha=0.015, gamma=0.135
0.024021972268057933
% TCTL (m^2) @ t=54, alpha=0.015, gamma=0.135
1.3927512180319046
% TCN (m^2) @ t=54, alpha=0.015, gamma=0.135
0.025081687766717792
% TCTL (m^2) @ t=55, alpha=0.015, gamma=0.135
1.440655965644535
% TCN (m^2) @ t=55, alpha=0.015, gamma=0.135
0.026141703337352204
% TCTL (m^2) @ t=56, alpha=0.015, gamma=0.135
1.4903338340612096
% TCN (m^2) @ t=56, alpha=0.015, gamma=0.135
0.02716303888211021
% TCTL (m^2) @ t=57, alpha=0.015, gamma=0.135
1.5423399192746192
% TCN (m^2) @ t=57, alpha=0.015, gamma=0.135
0.02816280225315566
% TCTL (m^2) @ t=58, alpha=0.015, gamma=0.135
1.596721668211529
% TCN (m^2) @ t=58, alpha=0.015, gamma=0.135
0.029142455747134897
% TCTL (m^2) @ t=59, alpha=0.015, gamma=0.135
1.653091338685376
% TCN (m^2) @ t=59, alpha=0.015, gamma=0.135
0.03006338542207327
% TCTL (m^2) @ t=60, alpha=0.015, gamma=0.135
1.7115829855014055
% TCN (m^2) @ t=60, alpha=0.015, gamma=0.135
0.030938941345749912
% TCTL (m^2) @ t=61, alpha=0.015, gamma=0.135
1.7722308766678605
% TCN (m^2) @ t=61, alpha=0.015, gamma=0.135
0.03177253615400261
% TCTL (m^2) @ t=62, alpha=0.015, gamma=0.135
1.8351754897928787
% TCN (m^2) @ t=62, alpha=0.015, gamma=0.135
0.03252793682786731
% TCTL (m^2) @ t=63, alpha=0.015, gamma=0.135
1.90038312757485
% TCN (m^2) @ t=63, alpha=0.015, gamma=0.135
0.03321383482347034
% TCTL (m^2) @ t=64, alpha=0.015, gamma=0.135
1.9678333094997593
% TCN (m^2) @ t=64, alpha=0.015, gamma=0.135
0.03383551262577863
% TCTL (m^2) @ t=65, alpha=0.015, gamma=0.135
2.037708773632302
% TCN (m^2) @ t=65, alpha=0.015, gamma=0.135
0.034375529301474965
% TCTL (m^2) @ t=66, alpha=0.015, gamma=0.135
2.1100642460596806
% TCN (m^2) @ t=66, alpha=0.015, gamma=0.135
0.034828661669284416
% TCTL (m^2) @ t=67, alpha=0.015, gamma=0.135
2.1849200330809633
% TCN (m^2) @ t=67, alpha=0.015, gamma=0.135
0.035192971650194645
% TCTL (m^2) @ t=68, alpha=0.015, gamma=0.135
2.2624648190323984
% TCN (m^2) @ t=68, alpha=0.015, gamma=0.135
0.035464481463566025
% TCTL (m^2) @ t=69, alpha=0.015, gamma=0.135
2.3428147644223447
% TCN (m^2) @ t=69, alpha=0.015, gamma=0.135
0.03563861896301443
% TCTL (m^2) @ t=70, alpha=0.015, gamma=0.135
2.4260337670706256
% TCN (m^2) @ t=70, alpha=0.015, gamma=0.135
0.035710383685660076
% TCTL (m^2) @ t=71, alpha=0.015, gamma=0.135
2.512218838863948
% TCN (m^2) @ t=71, alpha=0.015, gamma=0.135
0.03567504655345818
% TCTL (m^2) @ t=72, alpha=0.015, gamma=0.135
2.6014669916890543
% TCN (m^2) @ t=72, alpha=0.015, gamma=0.135
0.03552787848836378
% TCTL (m^2) @ t=73, alpha=0.015, gamma=0.135
2.6938752374326813
% TCN (m^2) @ t=73, alpha=0.015, gamma=0.135
0.03526415041233196
% TCTL (m^2) @ t=74, alpha=0.015, gamma=0.135
2.789588765071343
% TCN (m^2) @ t=74, alpha=0.015, gamma=0.135
0.03490187646135619
% TCTL (m^2) @ t=75, alpha=0.015, gamma=0.135
2.8887222006815474
% TCN (m^2) @ t=75, alpha=0.015, gamma=0.135
0.03444464278127107
% TCTL (m^2) @ t=76, alpha=0.015, gamma=0.135
2.9913556334344853
% TCN (m^2) @ t=76, alpha=0.015, gamma=0.135
0.03387973149805101
% TCTL (m^2) @ t=77, alpha=0.015, gamma=0.135
3.097593368809211
% TCN (m^2) @ t=77, alpha=0.015, gamma=0.135
0.03320585665842545
% TCTL (m^2) @ t=78, alpha=0.015, gamma=0.135
3.207539712284781
% TCN (m^2) @ t=78, alpha=0.015, gamma=0.135
0.03242173230912346
% TCTL (m^2) @ t=79, alpha=0.015, gamma=0.135
3.321298969340257
% TCN (m^2) @ t=79, alpha=0.015, gamma=0.135
0.03152607249687453
% TCTL (m^2) @ t=80, alpha=0.015, gamma=0.135
3.4391177264774626
% TCN (m^2) @ t=80, alpha=0.015, gamma=0.135
0.030556150572036648
% TCTL (m^2) @ t=81, alpha=0.015, gamma=0.135
3.5612131497454076
% TCN (m^2) @ t=81, alpha=0.015, gamma=0.135
0.02954126670520065
% TCTL (m^2) @ t=82, alpha=0.015, gamma=0.135
3.6875931519309777
% TCN (m^2) @ t=82, alpha=0.015, gamma=0.135
0.028454011746807423
% TCTL (m^2) @ t=83, alpha=0.015, gamma=0.135
3.818382917720341
% TCN (m^2) @ t=83, alpha=0.015, gamma=0.135
0.027298758176956844
% TCTL (m^2) @ t=84, alpha=0.015, gamma=0.135
3.9537076317997073
% TCN (m^2) @ t=84, alpha=0.015, gamma=0.135
0.026079878475749236
% TCTL (m^2) @ t=85, alpha=0.015, gamma=0.135
4.093692478855253
% TCN (m^2) @ t=85, alpha=0.015, gamma=0.135
0.02480174512328461
% TCTL (m^2) @ t=86, alpha=0.015, gamma=0.135
4.238614942119406
% TCN (m^2) @ t=86, alpha=0.015, gamma=0.135
0.023485562168648902
% TCTL (m^2) @ t=87, alpha=0.015, gamma=0.135
4.3888452387659616
% TCN (m^2) @ t=87, alpha=0.015, gamma=0.135
0.022162782332177555
% TCTL (m^2) @ t=88, alpha=0.015, gamma=0.135
4.544337141724624
% TCN (m^2) @ t=88, alpha=0.015, gamma=0.135
0.020818834191512522
% TCTL (m^2) @ t=89, alpha=0.015, gamma=0.135
4.705246011337518
% TCN (m^2) @ t=89, alpha=0.015, gamma=0.135
0.019461425147845234
% TCTL (m^2) @ t=90, alpha=0.015, gamma=0.135
4.871727207946714
% TCN (m^2) @ t=90, alpha=0.015, gamma=0.135
0.018098262602367195
% TCTL (m^2) @ t=91, alpha=0.015, gamma=0.135
5.043936091894277
% TCN (m^2) @ t=91, alpha=0.015, gamma=0.135
0.01673705395627
% TCTL (m^2) @ t=92, alpha=0.015, gamma=0.135
5.222141611367603
% TCN (m^2) @ t=92, alpha=0.015, gamma=0.135
0.015393190465587368
% TCTL (m^2) @ t=93, alpha=0.015, gamma=0.135
5.4068591218898545
% TCN (m^2) @ t=93, alpha=0.015, gamma=0.135
0.014098732055388504
% TCTL (m^2) @ t=94, alpha=0.015, gamma=0.135
5.598019006301625
% TCN (m^2) @ t=94, alpha=0.015, gamma=0.135
0.012846167117651741
% TCTL (m^2) @ t=95, alpha=0.015, gamma=0.135
5.79581035517835
% TCN (m^2) @ t=95, alpha=0.015, gamma=0.135
0.011645484796094455
% TCTL (m^2) @ t=96, alpha=0.015, gamma=0.135
6.000422259095504
% TCN (m^2) @ t=96, alpha=0.015, gamma=0.135
0.010506674234433922
% TCTL (m^2) @ t=97, alpha=0.015, gamma=0.135
6.212043808628549
% TCN (m^2) @ t=97, alpha=0.015, gamma=0.135
0.009439724576387514
% TCTL (m^2) @ t=98, alpha=0.015, gamma=0.135
6.430720958545141
% TCN (m^2) @ t=98, alpha=0.015, gamma=0.135
0.008447022098286027
% TCTL (m^2) @ t=99, alpha=0.015, gamma=0.135
6.6555887336923485
% TCN (m^2) @ t=99, alpha=0.015, gamma=0.135
0.007482567703938889
% TCTL (m^2) @ t=100, alpha=0.015, gamma=0.135
6.887448240083756
% TCN (m^2) @ t=100, alpha=0.015, gamma=0.135
0.006588858630491825
% TCTL (m^2) @ t=101, alpha=0.015, gamma=0.135
7.126407897554181
% TCN (m^2) @ t=101, alpha=0.015, gamma=0.135
0.005771599077506808
% TCTL (m^2) @ t=102, alpha=0.015, gamma=0.135
7.3725761259384255
% TCN (m^2) @ t=102, alpha=0.015, gamma=0.135
0.005036493244545707
% TCTL (m^2) @ t=103, alpha=0.015, gamma=0.135
7.623672370161651
% TCN (m^2) @ t=103, alpha=0.015, gamma=0.135
0.0043531986896851
% TCTL (m^2) @ t=104, alpha=0.015, gamma=0.135
7.878920840029526
% TCN (m^2) @ t=104, alpha=0.015, gamma=0.135
0.0037140779897730835
% TCTL (m^2) @ t=105, alpha=0.015, gamma=0.135
8.139071284812577
% TCN (m^2) @ t=105, alpha=0.015, gamma=0.135
0.003134512202905454
% TCTL (m^2) @ t=106, alpha=0.015, gamma=0.135
8.403837744790115
% TCN (m^2) @ t=106, alpha=0.015, gamma=0.135
0.0026142548347352908
% TCTL (m^2) @ t=107, alpha=0.015, gamma=0.135
8.669341757131129
% TCN (m^2) @ t=107, alpha=0.015, gamma=0.135
0.0021539062353781954
% TCTL (m^2) @ t=108, alpha=0.015, gamma=0.135
8.900706887407377
% TCN (m^2) @ t=108, alpha=0.015, gamma=0.135
0.0017613737661864614
% TCTL (m^2) @ t=109, alpha=0.015, gamma=0.135
9.111847433477546
% TCN (m^2) @ t=109, alpha=0.015, gamma=0.135
0.0014330635705068868
% TCTL (m^2) @ t=110, alpha=0.015, gamma=0.135
9.298216574441222
% TCN (m^2) @ t=110, alpha=0.015, gamma=0.135
0.001169733547471034
% TCTL (m^2) @ t=111, alpha=0.015, gamma=0.135
9.413770245638009
% TCN (m^2) @ t=111, alpha=0.015, gamma=0.135
9.492592918123573E-4
% TCTL (m^2) @ t=112, alpha=0.015, gamma=0.135
9.440850519755932
% TCN (m^2) @ t=112, alpha=0.015, gamma=0.135
7.651690097787337E-4
% TCTL (m^2) @ t=113, alpha=0.015, gamma=0.135
9.376033133544798
% TCN (m^2) @ t=113, alpha=0.015, gamma=0.135
6.188395983803183E-4
% TCTL (m^2) @ t=114, alpha=0.015, gamma=0.135
9.21330812489871
% TCN (m^2) @ t=114, alpha=0.015, gamma=0.135
5.03830124979956E-4
% TCTL (m^2) @ t=115, alpha=0.015, gamma=0.135
8.963202340177537
% TCN (m^2) @ t=115, alpha=0.015, gamma=0.135
4.1005373299080814E-4
% TCTL (m^2) @ t=116, alpha=0.015, gamma=0.135
8.60616759570314
% TCN (m^2) @ t=116, alpha=0.015, gamma=0.135
3.3405430551989624E-4
% TCTL (m^2) @ t=117, alpha=0.015, gamma=0.135
8.148411966948968
% TCN (m^2) @ t=117, alpha=0.015, gamma=0.135
2.7131046787837887E-4
% TCTL (m^2) @ t=118, alpha=0.015, gamma=0.135
7.644381610600425
% TCN (m^2) @ t=118, alpha=0.015, gamma=0.135
2.2190901276536126E-4
% TCTL (m^2) @ t=119, alpha=0.015, gamma=0.135
7.07779669449824
% TCN (m^2) @ t=119, alpha=0.015, gamma=0.135
1.792402864989411E-4
% TCTL (m^2) @ t=120, alpha=0.015, gamma=0.135
6.51473090994709
% TCN (m^2) @ t=120, alpha=0.015, gamma=0.135
1.463766821672284E-4
% TCTL (m^2) @ t=121, alpha=0.015, gamma=0.135
5.964625506947474
% TCN (m^2) @ t=121, alpha=0.015, gamma=0.135
1.1918693822123448E-4
% TCTL (m^2) @ t=122, alpha=0.015, gamma=0.135
5.433252443928389
% TCN (m^2) @ t=122, alpha=0.015, gamma=0.135
9.788562048347976E-5
% TCTL (m^2) @ t=123, alpha=0.015, gamma=0.135
4.936998826455038
% TCN (m^2) @ t=123, alpha=0.015, gamma=0.135
8.135901214263898E-5
% TCTL (m^2) @ t=124, alpha=0.015, gamma=0.135
4.478730155115068
% TCN (m^2) @ t=124, alpha=0.015, gamma=0.135
6.871732789515393E-5
% TCTL (m^2) @ t=125, alpha=0.015, gamma=0.135
4.057375381487408
% TCN (m^2) @ t=125, alpha=0.015, gamma=0.135
5.936597313737764E-5
% TCTL (m^2) @ t=126, alpha=0.015, gamma=0.135
3.674475105036736
% TCN (m^2) @ t=126, alpha=0.015, gamma=0.135
5.2475094363239555E-5
% TCTL (m^2) @ t=127, alpha=0.015, gamma=0.135
3.325385919874378
% TCN (m^2) @ t=127, alpha=0.015, gamma=0.135
4.737131132443026E-5
% TCTL (m^2) @ t=128, alpha=0.015, gamma=0.135
3.0100333946900664
% TCN (m^2) @ t=128, alpha=0.015, gamma=0.135
4.3629708669484306E-5
% TCTL (m^2) @ t=129, alpha=0.015, gamma=0.135
2.7256183399441185
% TCN (m^2) @ t=129, alpha=0.015, gamma=0.135
4.09078609308617E-5
% TCTL (m^2) @ t=130, alpha=0.015, gamma=0.135
2.4693026034706045
% TCN (m^2) @ t=130, alpha=0.015, gamma=0.135
3.896598139822493E-5
% TCTL (m^2) @ t=131, alpha=0.015, gamma=0.135
2.237585673737133
% TCN (m^2) @ t=131, alpha=0.015, gamma=0.135
3.7671990821857245E-5
% TCTL (m^2) @ t=132, alpha=0.015, gamma=0.135
2.028283724019485
% TCN (m^2) @ t=132, alpha=0.015, gamma=0.135
3.6951120007415734E-5
% TCTL (m^2) @ t=133, alpha=0.015, gamma=0.135
1.8388818862081364
% TCN (m^2) @ t=133, alpha=0.015, gamma=0.135
3.6806553228464524E-5
% TCTL (m^2) @ t=134, alpha=0.015, gamma=0.135
1.6670474542094926
% TCN (m^2) @ t=134, alpha=0.015, gamma=0.135
3.721954849990771E-5
% TCTL (m^2) @ t=135, alpha=0.015, gamma=0.135
1.5107432796368754
% TCN (m^2) @ t=135, alpha=0.015, gamma=0.135
3.829068075800043E-5
% TCTL (m^2) @ t=136, alpha=0.015, gamma=0.135
1.3685364007863012
% TCN (m^2) @ t=136, alpha=0.015, gamma=0.135
4.002371519024965E-5
% TCTL (m^2) @ t=137, alpha=0.015, gamma=0.135
1.2395193669892597
% TCN (m^2) @ t=137, alpha=0.015, gamma=0.135
4.244581956367835E-5
% TCTL (m^2) @ t=138, alpha=0.015, gamma=0.135
1.1224277729930496
% TCN (m^2) @ t=138, alpha=0.015, gamma=0.135
4.5558967109673486E-5
% TCTL (m^2) @ t=139, alpha=0.015, gamma=0.135
1.0162803325099048
% TCN (m^2) @ t=139, alpha=0.015, gamma=0.135
4.933336748657455E-5
% TCTL (m^2) @ t=140, alpha=0.015, gamma=0.135
0.9205239779944104
% TCN (m^2) @ t=140, alpha=0.015, gamma=0.135
5.3874119164801676E-5
% TCTL (m^2) @ t=141, alpha=0.015, gamma=0.135
0.8344053616774203
% TCN (m^2) @ t=141, alpha=0.015, gamma=0.135
5.9259554057820236E-5
% TCTL (m^2) @ t=142, alpha=0.015, gamma=0.135
0.7569910139446199
% TCN (m^2) @ t=142, alpha=0.015, gamma=0.135
6.561741465035174E-5
% TCTL (m^2) @ t=143, alpha=0.015, gamma=0.135
0.6874066203472472
% TCN (m^2) @ t=143, alpha=0.015, gamma=0.135
7.306950755708425E-5
% TCTL (m^2) @ t=144, alpha=0.015, gamma=0.135
0.6249656945254591
% TCN (m^2) @ t=144, alpha=0.015, gamma=0.135
8.183357791230896E-5
% TCTL (m^2) @ t=145, alpha=0.015, gamma=0.135
0.5689172575464453
% TCN (m^2) @ t=145, alpha=0.015, gamma=0.135
9.210236982523923E-5
% TCTL (m^2) @ t=146, alpha=0.015, gamma=0.135
0.5187277094696131
% TCN (m^2) @ t=146, alpha=0.015, gamma=0.135
1.0416031965958117E-4
% TCTL (m^2) @ t=147, alpha=0.015, gamma=0.135
0.4737919842958309
% TCN (m^2) @ t=147, alpha=0.015, gamma=0.135
1.1826399386029223E-4
% TCTL (m^2) @ t=148, alpha=0.015, gamma=0.135
0.4337671138709247
% TCN (m^2) @ t=148, alpha=0.015, gamma=0.135
1.3476797653106848E-4
% TCTL (m^2) @ t=149, alpha=0.015, gamma=0.135
0.39821344184437535
% TCN (m^2) @ t=149, alpha=0.015, gamma=0.135
1.5399152169596615E-4
% TCTL (m^2) @ t=150, alpha=0.015, gamma=0.135
0.3667268606460223
% TCN (m^2) @ t=150, alpha=0.015, gamma=0.135
1.7639133883844683E-4
% TCTL (m^2) @ t=151, alpha=0.015, gamma=0.135
0.33894321747853723
% TCN (m^2) @ t=151, alpha=0.015, gamma=0.135
2.0245009426889435E-4
% TCTL (m^2) @ t=152, alpha=0.015, gamma=0.135
0.31477877223005807
% TCN (m^2) @ t=152, alpha=0.015, gamma=0.135
2.3270331463010193E-4
% TCTL (m^2) @ t=153, alpha=0.015, gamma=0.135
0.294193222856214
% TCN (m^2) @ t=153, alpha=0.015, gamma=0.135
2.677483346271791E-4
% TCTL (m^2) @ t=154, alpha=0.015, gamma=0.135
0.27698525751674596
% TCN (m^2) @ t=154, alpha=0.015, gamma=0.135
3.083249363307001E-4
% TCTL (m^2) @ t=155, alpha=0.015, gamma=0.135
0.26308171115602524
% TCN (m^2) @ t=155, alpha=0.015, gamma=0.135
3.552302292821925E-4
% TCTL (m^2) @ t=156, alpha=0.015, gamma=0.135
0.2522652404497981
% TCN (m^2) @ t=156, alpha=0.015, gamma=0.135
4.0945912302684363E-4
% TCTL (m^2) @ t=157, alpha=0.015, gamma=0.135
0.24435472883289544
% TCN (m^2) @ t=157, alpha=0.015, gamma=0.135
4.7208664735354537E-4
% TCTL (m^2) @ t=158, alpha=0.015, gamma=0.135
0.23901228354696802
% TCN (m^2) @ t=158, alpha=0.015, gamma=0.135
5.443712472868981E-4
% TCTL (m^2) @ t=159, alpha=0.015, gamma=0.135
0.23588725853828624
% TCN (m^2) @ t=159, alpha=0.015, gamma=0.135
6.276865074230599E-4
% TCTL (m^2) @ t=160, alpha=0.015, gamma=0.135
0.2346981027916193
% TCN (m^2) @ t=160, alpha=0.015, gamma=0.135
7.235285780235782E-4
% TCTL (m^2) @ t=161, alpha=0.015, gamma=0.135
0.23507986418411939
% TCN (m^2) @ t=161, alpha=0.015, gamma=0.135
8.335349132231991E-4
% TCTL (m^2) @ t=162, alpha=0.015, gamma=0.135
0.23715375126509836
% TCN (m^2) @ t=162, alpha=0.015, gamma=0.135
9.594677990611567E-4
% TCTL (m^2) @ t=163, alpha=0.015, gamma=0.135
0.2407242795855558
% TCN (m^2) @ t=163, alpha=0.015, gamma=0.135
0.0011029774562476605
% TCTL (m^2) @ t=164, alpha=0.015, gamma=0.135
0.24600119611038765
% TCN (m^2) @ t=164, alpha=0.015, gamma=0.135
0.0012662366376715729
% TCTL (m^2) @ t=165, alpha=0.015, gamma=0.135
0.25295046519815795
% TCN (m^2) @ t=165, alpha=0.015, gamma=0.135
0.0014510655729901383
% TCTL (m^2) @ t=166, alpha=0.015, gamma=0.135
0.2615363877167561
% TCN (m^2) @ t=166, alpha=0.015, gamma=0.135
0.0016602258578332608
% TCTL (m^2) @ t=167, alpha=0.015, gamma=0.135
0.2717644435628828
% TCN (m^2) @ t=167, alpha=0.015, gamma=0.135
0.001895835989447106
% TCTL (m^2) @ t=168, alpha=0.015, gamma=0.135
0.28326424724339533
% TCN (m^2) @ t=168, alpha=0.015, gamma=0.135
0.0021612015352774805
% TCTL (m^2) @ t=169, alpha=0.015, gamma=0.135
0.29594966091497127
% TCN (m^2) @ t=169, alpha=0.015, gamma=0.135
0.002458826578903384
% TCTL (m^2) @ t=170, alpha=0.015, gamma=0.135
0.30943729940973097
% TCN (m^2) @ t=170, alpha=0.015, gamma=0.135
0.0027923997936731065
% TCTL (m^2) @ t=171, alpha=0.015, gamma=0.135
0.32352694262844606
% TCN (m^2) @ t=171, alpha=0.015, gamma=0.135
0.0031648331002307804
% TCTL (m^2) @ t=172, alpha=0.015, gamma=0.135
0.3380705591544967
% TCN (m^2) @ t=172, alpha=0.015, gamma=0.135
0.0035800396835222845
% TCTL (m^2) @ t=173, alpha=0.015, gamma=0.135
0.35284424434118156
% TCN (m^2) @ t=173, alpha=0.015, gamma=0.135
0.004041311706896545
% TCTL (m^2) @ t=174, alpha=0.015, gamma=0.135
0.36777735231382547
% TCN (m^2) @ t=174, alpha=0.015, gamma=0.135
0.004553263320950303
% TCTL (m^2) @ t=175, alpha=0.015, gamma=0.135
0.3826909423368006
% TCN (m^2) @ t=175, alpha=0.015, gamma=0.135
0.005119567780988393
% TCTL (m^2) @ t=176, alpha=0.015, gamma=0.135
0.39743334841878625
% TCN (m^2) @ t=176, alpha=0.015, gamma=0.135
0.0057441353127340045
% TCTL (m^2) @ t=177, alpha=0.015, gamma=0.135
0.41191383977362067
% TCN (m^2) @ t=177, alpha=0.015, gamma=0.135
0.006430885551031378
% TCTL (m^2) @ t=178, alpha=0.015, gamma=0.135
0.4271622443355738
% TCN (m^2) @ t=178, alpha=0.015, gamma=0.135
0.00718391115833031
% TCTL (m^2) @ t=179, alpha=0.015, gamma=0.135
0.44273133660853153
% TCN (m^2) @ t=179, alpha=0.015, gamma=0.135
0.008007076722448133
% TCTL (m^2) @ t=180, alpha=0.015, gamma=0.135
0.45868580276935567
% TCN (m^2) @ t=180, alpha=0.015, gamma=0.135
0.008904325876458216
% TCTL (m^2) @ t=181, alpha=0.015, gamma=0.135
0.47511245885791825
% TCN (m^2) @ t=181, alpha=0.015, gamma=0.135
0.00988155169892916
% TCTL (m^2) @ t=182, alpha=0.015, gamma=0.135
0.4922497696524215
% TCN (m^2) @ t=182, alpha=0.015, gamma=0.135
0.01095963854177959
% TCTL (m^2) @ t=183, alpha=0.015, gamma=0.135
0.5099195164494124
% TCN (m^2) @ t=183, alpha=0.015, gamma=0.135
0.012123693838963993
% TCTL (m^2) @ t=184, alpha=0.015, gamma=0.135
0.52812169924889
% TCN (m^2) @ t=184, alpha=0.015, gamma=0.135
0.013373717590482422
% TCTL (m^2) @ t=185, alpha=0.015, gamma=0.135
0.5468875733619658
% TCN (m^2) @ t=185, alpha=0.015, gamma=0.135
0.014712844165881575
% TCTL (m^2) @ t=186, alpha=0.015, gamma=0.135
0.5664553651953694
% TCN (m^2) @ t=186, alpha=0.015, gamma=0.135
0.01616496357194465
% TCTL (m^2) @ t=187, alpha=0.015, gamma=0.135
0.5866705164287878
% TCN (m^2) @ t=187, alpha=0.015, gamma=0.135
0.017714576270348295
% TCTL (m^2) @ t=188, alpha=0.015, gamma=0.135
0.6075330270622169
% TCN (m^2) @ t=188, alpha=0.015, gamma=0.135
0.019361682261092403
% TCTL (m^2) @ t=189, alpha=0.015, gamma=0.135
0.6290812013232404
% TCN (m^2) @ t=189, alpha=0.015, gamma=0.135
0.02110911506966202
% TCTL (m^2) @ t=190, alpha=0.015, gamma=0.135
0.6515374231465996
% TCN (m^2) @ t=190, alpha=0.015, gamma=0.135
0.022973325374906775
% TCTL (m^2) @ t=191, alpha=0.015, gamma=0.135
0.6747538991404349
% TCN (m^2) @ t=191, alpha=0.015, gamma=0.135
0.024943380275453078
% TCTL (m^2) @ t=192, alpha=0.015, gamma=0.135
0.6987306293047428
% TCN (m^2) @ t=192, alpha=0.015, gamma=0.135
0.027019279771300947
% TCTL (m^2) @ t=193, alpha=0.015, gamma=0.135
0.7235138769896086
% TCN (m^2) @ t=193, alpha=0.015, gamma=0.135
0.02920048784809535
% TCTL (m^2) @ t=194, alpha=0.015, gamma=0.135
0.749315289108742
% TCN (m^2) @ t=194, alpha=0.015, gamma=0.135
0.031484552331841664
% TCTL (m^2) @ t=195, alpha=0.015, gamma=0.135
0.7759904536253914
% TCN (m^2) @ t=195, alpha=0.015, gamma=0.135
0.0338731464028138
% TCTL (m^2) @ t=196, alpha=0.015, gamma=0.135
0.8035393705395661
% TCN (m^2) @ t=196, alpha=0.015, gamma=0.135
0.036366270061011556
% TCTL (m^2) @ t=197, alpha=0.015, gamma=0.135
0.8320057157827613
% TCN (m^2) @ t=197, alpha=0.015, gamma=0.135
0.038956490681962545
% TCTL (m^2) @ t=198, alpha=0.015, gamma=0.135
0.8615862185009866
% TCN (m^2) @ t=198, alpha=0.015, gamma=0.135
0.04161032955520516
% TCTL (m^2) @ t=199, alpha=0.015, gamma=0.135
0.8922153149035835
% TCN (m^2) @ t=199, alpha=0.015, gamma=0.135
0.04433894410814092
% TCTL (m^2) @ t=200, alpha=0.015, gamma=0.135
0.9239266556880246
% TCN (m^2) @ t=200, alpha=0.015, gamma=0.135
0.047136607777214665
% TCTL (m^2) @ t=0, alpha=0.0175, gamma=0.135
0.8999682516242516
% TCN (m^2) @ t=0, alpha=0.0175, gamma=0.135
1.391562453738794E-4
% TCTL (m^2) @ t=1, alpha=0.0175, gamma=0.135
0.8270221930275163
% TCN (m^2) @ t=1, alpha=0.0175, gamma=0.135
1.555106301264542E-4
% TCTL (m^2) @ t=2, alpha=0.0175, gamma=0.135
0.7635003455781886
% TCN (m^2) @ t=2, alpha=0.0175, gamma=0.135
1.7629445874943453E-4
% TCTL (m^2) @ t=3, alpha=0.0175, gamma=0.135
0.7074054816279608
% TCN (m^2) @ t=3, alpha=0.0175, gamma=0.135
2.0138727074942006E-4
% TCTL (m^2) @ t=4, alpha=0.0175, gamma=0.135
0.6577394031555391
% TCN (m^2) @ t=4, alpha=0.0175, gamma=0.135
2.3113009726004628E-4
% TCTL (m^2) @ t=5, alpha=0.0175, gamma=0.135
0.6143404210794726
% TCN (m^2) @ t=5, alpha=0.0175, gamma=0.135
2.6598197879094634E-4
% TCTL (m^2) @ t=6, alpha=0.0175, gamma=0.135
0.5777809240817852
% TCN (m^2) @ t=6, alpha=0.0175, gamma=0.135
3.070933921246518E-4
% TCTL (m^2) @ t=7, alpha=0.0175, gamma=0.135
0.5479347668562802
% TCN (m^2) @ t=7, alpha=0.0175, gamma=0.135
3.55904160119338E-4
% TCTL (m^2) @ t=8, alpha=0.0175, gamma=0.135
0.5244808814906485
% TCN (m^2) @ t=8, alpha=0.0175, gamma=0.135
4.139082139146577E-4
% TCTL (m^2) @ t=9, alpha=0.0175, gamma=0.135
0.5064939159711312
% TCN (m^2) @ t=9, alpha=0.0175, gamma=0.135
4.851399728355747E-4
% TCTL (m^2) @ t=10, alpha=0.0175, gamma=0.135
0.4942491607572853
% TCN (m^2) @ t=10, alpha=0.0175, gamma=0.135
5.683475773457158E-4
% TCTL (m^2) @ t=11, alpha=0.0175, gamma=0.135
0.48716945963344227
% TCN (m^2) @ t=11, alpha=0.0175, gamma=0.135
6.651039478226317E-4
% TCTL (m^2) @ t=12, alpha=0.0175, gamma=0.135
0.4837101754541459
% TCN (m^2) @ t=12, alpha=0.0175, gamma=0.135
7.796186746268139E-4
% TCTL (m^2) @ t=13, alpha=0.0175, gamma=0.135
0.4848325443994008
% TCN (m^2) @ t=13, alpha=0.0175, gamma=0.135
9.092721065544832E-4
% TCTL (m^2) @ t=14, alpha=0.0175, gamma=0.135
0.48920319020778746
% TCN (m^2) @ t=14, alpha=0.0175, gamma=0.135
0.001059475484954628
% TCTL (m^2) @ t=15, alpha=0.0175, gamma=0.135
0.4958907259814715
% TCN (m^2) @ t=15, alpha=0.0175, gamma=0.135
0.0012340086576011686
% TCTL (m^2) @ t=16, alpha=0.0175, gamma=0.135
0.5056732803378429
% TCN (m^2) @ t=16, alpha=0.0175, gamma=0.135
0.001429713744853438
% TCTL (m^2) @ t=17, alpha=0.0175, gamma=0.135
0.5180841275266957
% TCN (m^2) @ t=17, alpha=0.0175, gamma=0.135
0.001656885374153051